# vtk DataFile Version 4.0
Generated by libgran
ASCII
DATASET POLYDATA
POINTS 150 FLOAT
-0.528627 10.7077 4.00003 -1.65468 11.6814 5.00066 -0.065427 11.6703 5.26107 -0.82174 9.32362 4.01708 -0.415395 8.53769 4.8933 0.731959 7.4861 4.72608 -0.260505 5.35755 3.36232 -0.484179 5.40351 4.87521 0.958691 5.70074 1.84643 -0.707507 5.05256 6.15273 -1.96992 4.75251 7.40324 -2.20471 3.99322 6.22762 -3.28167 5.45226 7.81139 1.90832 5.052 1.20668 3.18042 4.73802 1.20668 4.49309 4.53742 1.43166 4.86473 3.39141 2.77181 5.15701 2.90082 1.43166 -4.76981 6.52182 7.78244 -2.30148 9.70102 8.28032 -2.97645 8.28026 8.7464 -3.32874 11.1783 8.18118 -3.67072 12.5047 8.0059 -4.06949 13.702 7.89275 -3.64125 13.1212 6.8969 -4.87679 15.0327 8.32814 -3.33284 12.397 5.73604 1.06752 12.2449 5.13329 1.49854 13.4217 4.94136 2.30646 14.4699 5.03209 0.750377 14.4217 4.93943 4.04789 14.392 4.57508 4.92116 15.0463 4.69121 5.39387 16.6064 5.36249 2.033 15.9101 1.97052 1.46897 16.9374 2.76327 0.873325 18.4149 1.79275 1.05087 16.3106 3.51277 1.60649 18.7771 0.999998 1.01209 19.4806 1.76927 0.749412 20.5022 1.97663 -0.508551 21.7598 1.68767 -0.328214 22.8874 1.4803 0.142022 15.6214 4.20018 -2.41575 2.72565 6.2588 -0.925995 1.8377 6.9697 0.87511 2.5985 9.76119 -0.251614 1.42419 9.44874 0.0581771 2.00173 8.23721 0.273289 0.0866609 9.56343 -1.1982 1.02308 10.3545 -0.304419 0.425437 10.6595 -0.125353 1.26656 6.3916 6.86682 17.6086 4.30888 6.3312 18.7814 4.8917 5.96728 17.6392 5.10953 6.18724 20.2402 5.15536 8.22323 21.5957 3.81186 6.48379 21.2886 4.16907 5.51005 21.9818 4.96621 5.7531 17.1321 6.97513 5.75011 1.16081 1.29471 6.58809 -0.284278 2.28497 7.45605 0.00854409 2.92562 8.59509 0.815291 3.60213 1.67229 -2.70618 12.6726 1.44815 -3.75351 12.0086 0.855491 -1.98087 12.4206 1.94276 -4.78847 11.0115 1.37908 -4.51274 9.32218 4.66431 5.0492 17.0925 4.52691 6.92824 16.4779 3.87543 3.88527 16.818 4.05326 4.15957 18.2842 3.97543 7.49423 15.3745 3.64915 6.94469 13.5382 6.71299 8.15075 14.8958 5.30293 8.00841 16.0089 3.79634 2.96069 15.8777 2.42448 4.15741 15.6998 3.08175 3.3354 18.831 -0.608153 3.84655 14.0094 0.860013 4.63977 14.6897 -1.78043 3.85789 13.5679 -1.97668 2.6733 14.3839 -0.813376 2.61787 13.0718 -0.198435 1.24045 11.9458 0.387962 -0.373002 12.2128 0.0668308 -1.68627 13.1623 -0.978733 -1.60118 14.1296 -1.12681 -0.653768 15.7053 -0.18314 -1.0675 16.6749 5.08358 -8.52105 72.1595 3.58959 -9.69465 71.84 4.30241 -9.87478 72.5149 3.52686 -8.28839 71.7759 6.278 -8.72964 72.8885 7.18967 -8.59682 73.7493 7.4151 -9.61714 73.1309 3.71168 -10.6195 72.211 2.56136 -11.2107 71.0739 1.92203 -7.78959 71.6696 1.39373 -11.3037 70.5292 1.28577 -10.4502 69.6838 1.46796 -12.6461 70.9705 1.92349 -9.84244 68.0193 2.36674 -8.57964 67.4754 1.41388 -8.60098 66.8535 2.36281 -9.47582 69.3136 8.51179 -10.5854 72.0107 8.4592 -12.2561 71.3375 8.42761 -13.5514 72.2126 8.90116 -13.5427 74.026 7.93762 5.12363 59.758 7.01467 4.4975 60.6286 6.30297 2.71495 60.788 4.02543 2.19932 63.5466 4.2177 0.605314 63.9969 5.22722 2.03101 60.827 3.44975 2.02157 61.1237 6.06609 1.02457 60.3123 3.07215 2.2881 62.2807 1.6612 1.50772 61.3878 4.71804 -0.786547 64.2619 4.3499 -0.986417 63.247 5.22939 -2.18851 64.5977 0.538484 0.532573 61.8185 5.03803 -5.20285 61.1742 6.62774 -4.37818 61.2766 4.56066 -5.03872 62.301 6.81437 -3.46232 62.4013 5.50912 -2.29358 62.8287 5.58375 -3.04806 63.7892 5.56761 -3.705 63.037 2.51647 -3.69511 65.6996 2.80801 -3.88212 67.1437 1.40975 -4.47446 66.2423 3.98005 -3.39684 64.6913 4.91975 -3.7998 63.7912 3.33527 -3.06256 67.7335 1.26195 -5.99423 65.4996 0.301731 -7.44941 67.3225 1.30092 -7.28552 65.8318 3.43778 -2.15499 68.6652 4.01103 -1.85236 70.5034 3.44378 -1.94347 71.8766 2.11256 -3.15045 72.013 3.64828 -0.66807 71.4456 1.39649 -3.81353 72.6727 -4.66362 18.2732 10.1725 

POINT_DATA 150
FIELD FieldData 1
normals 3 150 double
0.241702 -0.78146 -0.57524 -0.884352 0.192266 0.425389 0.704902 0.181091 0.685798 -0.534816 -0.602637 0.592284 0.941161 -0.183294 0.283936 -0.206193 0.868302 0.45115 0.731483 0.129418 -0.669465 0.507809 0.175372 0.843431 0.487713 0.213768 -0.846427 -0.731137 -0.526317 0.434085 -0.53128 0.226266 0.816422 -0.766066 -0.533028 -0.359198 -0.780471 0.473477 -0.40827 0.461915 -0.862507 0.206678 0.810189 0.548524 -0.206678 -0.502477 0.749125 -0.431658 -0.130833 -0.396885 0.908496 0.161448 -0.887471 -0.431658 -0.707667 0.596088 0.379324 -0.170415 0.968423 -0.181978 -0.845382 -0.452343 0.284104 -0.856846 0.508874 0.0828398 0.514869 0.817487 -0.25812 -0.913642 0.37979 0.144973 -0.485398 -0.200988 -0.850878 0.10634 0.950973 0.290416 -0.793806 0.52324 0.309988 0.428049 0.393528 -0.813578 0.00296798 0.783294 0.621645 0.804949 0.264925 -0.530916 -0.751133 0.216702 -0.62357 0.936479 -0.342848 0.0739106 -0.0632091 0.997107 0.0422136 0.535922 0.563074 0.629075 -0.216067 0.106791 0.970521 0.34796 -0.920501 0.177769 -0.247686 0.556952 -0.792752 -0.766065 0.293719 0.571728 -0.980849 0.194771 -2.09506e-08 0.386449 0.508806 0.769268 -0.649124 0.512742 -0.561902 -0.608839 0.744862 0.272939 0.789176 0.382763 -0.480306 -0.142778 -0.982971 0.115682 0.555023 -0.734542 0.390383 0.934737 -0.153409 0.320521 0.767498 0.279338 0.57699 -0.359226 -0.894972 0.264541 -0.0494355 -0.317439 -0.946989 -0.884128 0.442561 0.149854 -0.58736 0.493859 0.64118 0.30642 -0.103786 0.946221 0.134095 0.417729 0.898622 -0.86204 0.500263 -0.0813911 0.326428 0.672502 0.664218 -0.0374923 -0.469676 0.882042 -0.470387 0.786315 -0.400555 0.9725 0.0448905 0.228536 -0.766936 -0.262133 0.585744 -0.206805 0.95527 0.211404 -0.176686 -0.0374059 0.983556 -0.431651 0.852539 -0.29471 0.406328 -0.592548 0.695547 -0.461636 -0.88537 0.0548894 0.677404 -0.0786232 0.731398 -0.735234 -0.1879 -0.651249 0.511093 -0.85943 -0.0127692 -0.0815685 0.913214 0.399234 0.016488 0.175527 0.984336 -0.547194 0.451262 -0.70494 -0.0539591 -0.930553 0.362159 -0.191351 0.948485 -0.252509 -0.734922 -0.233382 -0.636728 -0.557086 0.0409246 0.829446 0.360134 0.382498 0.850881 0.0338566 -0.167041 -0.985368 0.442691 0.0106535 -0.896611 -0.967367 -0.131686 0.216471 0.65584 -0.691189 -0.303531 -0.716028 0.505525 -0.481403 0.414426 0.865102 0.282577 -0.61973 -0.770056 -0.15149 0.848436 0.0231646 0.528791 -0.552545 0.781395 -0.290026 -0.7488 -0.403195 0.526053 0.414506 -0.458617 -0.786037 -0.200436 0.918803 0.34004 0.385961 -0.694653 0.607035 -0.707092 -0.618612 0.34255 -0.338472 0.703703 0.624691 0.190394 0.243704 0.950978 0.753279 -0.657436 0.0186968 0.90325 0.428831 0.0156188 -0.591926 -0.746267 -0.304482 0.121597 -0.921232 0.369521 -0.653469 0.661489 -0.367983 -0.29117 0.637427 -0.713378 0.620495 0.770244 0.147344 0.84593 -0.250076 -0.471025 0.714249 -0.180495 0.676218 -0.437497 -0.771292 -0.462283 -0.951366 -0.162689 0.261601 0.730129 -0.678327 0.0823693 0.62216 0.175152 -0.763045 -0.655905 -0.664055 0.358915 -0.0155633 -0.432595 0.901454 0.427689 0.830212 0.357533 -0.525174 0.808871 -0.264423 -0.454888 -0.799215 -0.392851 0.250764 -0.718146 -0.649141 -0.30336 -0.952571 -0.0241242 0.271772 -0.342754 0.899255 0.201782 0.351461 0.914198 -0.343647 0.187473 0.920196 0.579306 0.813604 0.0495253 -0.132388 -0.968939 0.208878 -0.496777 0.649753 -0.575356 -0.304517 -0.944253 -0.125121 0.943365 -0.285001 0.169816 -0.83411 -0.294439 0.466439 -0.104499 -0.721439 -0.684548 0.456511 0.560968 0.690588 -0.954434 -0.219412 -0.202271 0.804718 -0.447529 0.39006 0.436673 -0.647407 -0.624644 -0.293521 -0.95441 -0.0542832 0.168283 0.755739 -0.632882 -0.820888 -0.418144 0.38897 0.769945 0.407103 0.491377 0.342773 0.581681 0.737668 0.58266 -0.508974 -0.633603 -0.722588 0.659763 -0.206348 -0.648648 -0.0949126 0.755147 -0.662017 -0.749486 0.0020183 0.507744 0.0442902 -0.860369 0.799284 -0.142716 0.583762 -0.598976 -0.735061 -0.317668 0.955836 0.253981 -0.147887 -0.0161591 -0.657712 -0.753096 -0.272022 0.962272 0.00606363 0.451176 -0.784704 -0.425064 0.586973 -0.342701 -0.733498 0.412212 0.506587 -0.757265 0.374524 -0.054702 0.925602 0.198728 0.357329 0.912591 0.765979 0.448437 -0.460631 -0.565234 -0.758538 -0.324239 -0.561474 0.826965 0.0295872 -0.150842 0.0954523 0.983939 0.475188 0.854294 0.210662 