# vtk DataFile Version 4.0
Generated by libgran
ASCII
DATASET POLYDATA
POINTS 121 FLOAT
-3.82917 -6.12423 9.64244 -3.56038 -5.67377 11.3665 -3.79472 -4.51418 11.8976 0.173403 -3.5816 11.1506 -1.19118 -3.50682 10.4113 -1.78198 -4.84484 12.6715 -1.7508 -3.66511 9.48398 -2.30992 -3.03808 7.03725 -3.39629 -2.24073 6.06884 -2.31294 -4.67565 8.18915 -0.957923 -2.24823 7.98569 -3.51734 -1.89825 4.71441 -4.23568 -1.92665 3.4958 -5.52209 -0.63439 3.45032 -2.79649 -3.02636 4.30702 -2.15769 -4.61255 4.48042 -1.44149 -3.13363 5.22024 -6.61795 -0.604771 3.77712 -6.80219 -1.58855 0.871446 -4.34531 -2.92472 11.0854 3.53733 -2.23951 7.88122 6.05482 -1.1165 7.3652 6.1109 -0.0542846 6.31875 7.35861 -0.882221 6.86979 6.54301 -1.94487 6.71808 4.72749 -1.53285 8.51077 6.06316 1.79084 6.45282 8.51239 -1.64087 6.83613 7.2492 2.52908 6.30911 6.42234 3.0626 5.79352 6.65643 4.30524 4.4311 6.20672 3.57666 3.91445 7.96171 4.26248 1.30231 7.67304 5.03118 3.4946 6.37613 4.46338 3.48431 6.24506 5.67083 4.65928 5.26787 3.82594 2.22066 4.27845 4.84269 1.28988 1.43107 -1.92726 8.86175 1.58496 -1.42108 7.13906 -0.487438 -0.955403 12.6619 -0.821757 0.344057 11.8053 -1.13014 -2.60044 12.3039 -0.39511 0.145481 10.3919 -0.0875048 -0.930561 9.1748 0.110021 -0.783479 8.10632 -0.0446765 0.595779 7.83115 10.9617 -6.42801 4.00554 13.7827 -6.66961 4.76307 10.6104 -5.30787 5.64481 10.2196 -6.10961 6.61801 9.50756 -5.2104 3.84413 10.1097 -3.92254 6.4124 8.70652 -4.85608 8.06828 9.34694 -5.52547 8.77432 9.04749 -6.46014 8.5827 7.14838 -3.73126 6.74723 7.24245 -4.45174 5.61516 7.71103 -4.57114 4.31724 9.35328 -6.21159 9.50178 10.4645 -4.79964 9.35683 15.3838 -9.36262 3.25611 14.5996 -7.82335 3.76923 14.3485 -9.60293 3.70327 13.747 -11.8246 1.71604 14.0144 -10.7146 3.11024 13.9864 -10.7217 1.16347 -5.27111 -0.45823 1.13689 -0.477491 6.41731 -13.0221 -0.213892 5.46255 -12.4326 1.56308 7.55017 -14.5768 1.00236 8.79893 -15.56 2.02497 9.14384 -14.1592 -0.273683 8.68616 -16.8275 1.17773 9.78323 -16.1085 -1.46338 9.2426 -17.2538 3.11394 9.98486 -12.7872 3.48536 10.9835 -11.3338 2.19092 10.3946 -11.0083 -7.15151 2.47965 -13.2599 -8.57013 3.50399 -13.9631 -6.05237 1.74619 -13.7658 -8.25366 4.32141 -14.8804 -5.53454 0.298665 -12.5032 -4.30884 1.80403 -12.4761 -3.50636 1.83932 -10.9358 -2.34286 2.62437 -10.757 -1.7008 3.45374 -12.0758 -3.08954 1.03863 -9.82868 -6.61816 1.67176 -8.66078 -5.93521 0.920188 -9.74335 -7.58426 1.10086 -7.34581 -6.87763 2.28565 -6.97554 -5.65992 0.391171 -10.7569 -2.96885 2.07156 -6.0388 -4.74227 1.18126 -5.15063 -5.33591 1.24611 -6.08532 -5.45622 1.96369 -4.30319 -4.25009 2.93755 -6.41488 -6.04163 2.95239 -6.60797 -6.56719 3.8982 -6.22013 -5.2969 -0.279351 -6.51848 -3.34432 -2.27241 -4.61533 -5.53866 4.89616 -5.38049 -5.07348 5.43945 -3.71563 -5.40241 4.50595 -3.85841 -4.46159 6.20549 -2.26529 -5.54943 4.95887 -2.97906 -1.0237 -1.37478 -3.53807 -2.11519 -2.22673 -3.24684 -4.84056 -1.39528 0.51791 -2.14912 -0.780088 -0.219639 -3.51702 -0.693712 0.950397 -8.92767 1.65391 -2.12843 -7.44618 2.68308 -2.66818 -7.93296 2.7851 -4.18357 -6.42545 2.1474 -3.42982 -9.56452 2.68571 -2.99184 -10.5219 4.06149 -2.32986 -9.81848 4.22803 -3.74016 -12.5631 4.60238 -3.58461 

POINT_DATA 121
FIELD FieldData 1
normals 3 121 double
0.563274 0.208286 0.799587 -0.294478 0.242181 0.924463 0.060132 0.917401 -0.393394 0.716051 0.591333 0.370941 -0.648529 0.666118 -0.368371 0.145043 0.386827 0.910674 0.0889024 -0.824415 -0.55896 0.878966 0.047098 0.474552 -0.207404 0.844445 -0.493859 0.651042 0.186119 0.73587 0.473028 0.742749 0.473887 0.0863494 -0.501967 -0.860566 0.804691 -0.473573 0.358051 -0.481716 0.818686 0.312575 0.634501 -0.626136 0.453169 -0.00430124 0.960059 0.279764 0.720505 0.518864 0.460057 0.614143 0.789067 -0.0142248 -0.660402 0.344298 -0.667329 -0.610717 0.672067 -0.418749 0.261173 0.423246 0.867555 -0.398333 -0.132927 0.907558 -0.342246 0.929287 -0.138902 0.905463 0.10135 0.412147 0.0898583 -0.961303 0.260428 -0.928992 -0.283419 0.238008 0.294505 0.915834 0.272976 0.248318 -0.859997 -0.445806 -0.891534 0.177589 0.416688 0.0646758 0.355927 -0.932273 0.169412 0.886721 -0.430145 -0.280303 0.15814 -0.946796 0.582893 0.751606 -0.308745 -0.847202 0.160787 0.506355 -0.449714 -0.72858 -0.516651 -0.580779 0.478862 0.658321 -0.658547 0.0911379 -0.747001 -0.330873 0.925608 -0.183772 -0.502159 -0.316969 0.804591 -0.348265 0.189207 -0.918102 0.0559706 -0.996914 -0.0550351 -0.278348 0.302546 -0.911586 -0.698671 -0.648121 -0.302981 -0.704995 0.501122 0.501856 -0.39739 -0.574921 -0.715225 0.594916 0.722003 -0.353251 -0.749614 0.657255 0.0780756 -0.547627 0.802339 -0.237396 0.794863 -0.258391 -0.549023 0.91296 0.258697 -0.315564 0.522135 -0.543047 0.657629 -0.90652 0.415268 0.0759876 0.0319775 -0.250599 0.967563 -0.334627 0.917951 0.213049 0.305795 0.248557 0.91908 0.00634357 -0.686117 0.727464 0.515511 -0.825083 -0.23127 -0.421437 0.104602 -0.900805 -0.890013 0.223998 0.397117 -0.299451 -0.934672 -0.191619 0.81175 0.477269 -0.336565 -0.762038 0.643918 0.0683181 -0.0220856 0.895352 0.444811 -0.273178 -0.884221 0.378851 0.206447 0.882627 0.422313 0.0609381 0.227424 0.971887 0.0328834 0.220296 -0.974879 0.854852 -0.490629 0.16885 -0.898702 0.438296 -0.0151905 -0.635104 -0.516468 0.574372 -0.11431 0.985153 -0.128088 -0.446409 0.26361 -0.855119 0.576208 0.608515 0.545614 -0.829632 -0.376381 -0.412369 0.621784 0.720691 0.306577 -0.360065 0.932822 -0.0140189 -0.512758 -0.232503 -0.826452 -0.14134 0.766166 0.626908 0.451013 -0.4592 0.765325 0.906549 -0.243829 0.344552 -0.512067 0.78051 -0.358597 0.192599 -0.489627 -0.850395 0.828534 0.03691 -0.55872 -0.379455 0.406133 0.831306 -0.0299317 0.118645 0.992485 0.832405 -0.0833479 0.547865 -0.331094 -0.86839 0.369155 0.310967 -0.0390131 -0.94962 -0.415579 -0.717342 0.559209 -0.15359 -0.0910696 0.983929 0.529358 -0.842644 -0.0986467 -0.812511 -0.479833 0.331038 -0.105887 0.704953 0.701305 -0.254073 0.313627 -0.914924 -0.431595 0.889381 0.150758 -0.735593 0.661722 -0.145006 0.141957 -0.596867 -0.789682 0.0216479 0.120715 0.992451 -0.849647 -0.0233815 -0.526833 -0.941892 0.0382135 0.333735 0.416332 0.907601 0.0541096 0.102955 0.928596 -0.356523 0.373709 -0.190851 0.907699 0.612197 0.0903595 0.785525 -0.147014 0.452926 0.879344 -0.475949 -0.480571 0.736562 -0.7589 -0.313114 -0.570991 -0.328936 -0.933496 -0.14278 -0.236076 -0.615429 0.752008 0.855415 0.236525 0.460783 0.424302 0.446422 0.787829 0.468653 -0.341522 -0.814695 -0.89924 -0.255146 0.355342 -0.365457 0.0715018 -0.928078 0.0298397 -0.472695 -0.880721 0.51662 -0.574713 0.634672 0.990884 -0.0629873 0.119083 -0.271392 0.960294 0.0646654 -0.685986 0.41549 0.59732 0.0174329 0.582033 -0.812978 -0.970871 -0.226239 0.0788986 