# vtk DataFile Version 4.0
Generated by libgran
ASCII
DATASET POLYDATA
POINTS 121 FLOAT
-3.22452 -5.36872 9.17333 -3.14166 -4.90559 10.9129 -3.46173 -3.74595 11.3971 0.461448 -2.66118 10.7349 -0.916609 -2.67669 10.0173 -1.44112 -3.96399 12.3311 -1.48476 -2.89785 9.10823 -2.22033 -2.42294 6.72777 -3.36592 -1.71053 5.7614 -2.04043 -4.00028 7.88772 -0.870793 -1.53745 7.59145 -3.53418 -1.42712 4.39839 -4.26643 -1.51779 3.19115 -5.57141 -0.246688 3.1009 -2.79083 -2.55177 4.02314 -2.12963 -4.11962 4.26566 -1.40676 -2.59448 4.89725 -6.65794 -0.210418 3.45689 -6.91036 -1.38073 0.625891 -3.96583 -2.20048 10.477 3.5453 -1.4871 7.22786 6.07012 -0.481136 6.52374 6.18381 0.568131 5.46893 7.35731 -0.403529 5.94293 6.41269 -1.36103 5.85161 4.79273 -0.795789 7.75529 6.35733 2.40537 5.60736 8.40677 -1.29587 5.8417 7.63036 2.97967 5.45927 6.88238 3.60869 4.93104 7.28366 4.78801 3.55143 6.74243 4.11787 3.0435 8.58082 4.5237 0.430416 8.39051 5.35771 2.60918 7.02959 4.96743 2.60103 7.05709 6.19953 3.75725 5.84993 4.46373 1.34164 5.01371 5.58884 0.385634 1.52653 -1.09754 8.32424 1.54753 -0.679102 6.57152 -0.289853 -0.0115512 12.1622 -0.703893 1.23938 11.269 -0.865544 -1.69468 11.874 -0.314175 0.995858 9.85189 -0.00975122 -0.128888 8.67884 0.141315 -0.028752 7.59743 -0.0693186 1.33567 7.28762 10.1428 -6.41045 3.06561 12.9757 -6.8877 3.63 10.0201 -5.16776 4.59747 9.61272 -5.90036 5.61726 8.81782 -5.05464 2.89402 9.70796 -3.72482 5.33984 8.34185 -4.45293 7.12463 8.95677 -5.1716 7.80441 8.54235 -6.07131 7.66737 6.82379 -3.20197 5.87211 6.78231 -3.94915 4.75428 7.14637 -4.17656 3.43741 8.94314 -5.835 8.55254 10.1888 -4.56123 8.27833 14.1212 -9.84574 2.21145 13.5712 -8.19002 2.66273 13.0943 -9.92274 2.73015 12.3726 -12.2771 0.945865 12.689 -11.0584 2.23517 12.7272 -11.2598 0.299001 -5.38678 -0.218993 0.771225 -0.737998 5.85104 -9.69971 -0.595799 4.85281 -9.14119 1.54559 7.45812 -10.0085 1.30828 8.7683 -11.0418 1.4312 9.00866 -9.29426 0.879604 8.68998 -12.7904 1.51016 9.84872 -11.3458 -0.0362803 9.12757 -13.7266 1.52933 9.74771 -7.49985 0.924276 10.5134 -5.98487 -0.19405 9.67369 -6.40042 -5.69552 1.55733 -13.4636 -6.68379 2.66104 -14.6303 -4.42264 0.939546 -13.4711 -6.03011 3.60019 -15.1785 -4.39573 -0.675264 -12.3082 -3.51342 0.863284 -11.5078 -3.53894 0.726215 -9.77615 -2.74026 1.56735 -8.96587 -1.744 2.68434 -9.73987 -3.56184 -0.219015 -8.7054 -6.63568 0.470057 -8.96945 -5.95553 -0.422204 -9.94129 -7.68219 0.158592 -7.62922 -6.83761 1.27862 -7.36021 -5.30418 -0.855128 -10.8196 -2.99584 0.694378 -6.34295 -4.86695 0.107578 -5.4014 -5.43693 0.15087 -6.35193 -5.48545 1.05515 -4.65332 -4.15498 1.6708 -6.8287 -5.93123 1.879 -7.04948 -6.34512 2.91326 -6.76629 -5.5837 -1.40397 -6.62961 -3.43497 -2.8993 -4.78802 -5.19004 3.85382 -6.03151 -4.61832 4.49438 -4.43584 -5.07135 3.60392 -4.47876 -3.87669 5.31326 -3.07786 -5.13652 4.1586 -3.64925 -1.52469 -1.16446 -3.95666 -2.14416 -2.38067 -3.58367 -4.96445 -1.19351 0.206847 -2.30183 -0.609953 -0.652426 -3.63653 -0.451029 0.547952 -8.97792 1.68824 -2.56788 -7.32836 2.31723 -3.19261 -7.77382 2.29501 -4.7239 -6.42013 1.50065 -3.83854 -9.34973 2.72354 -3.57066 -9.9299 4.36335 -3.09947 -9.24668 4.17197 -4.51653 -11.8354 5.01478 -4.42902 

POINT_DATA 121
FIELD FieldData 1
normals 3 121 double
0.474565 0.216238 0.853246 -0.391701 0.246888 0.88635 0.0716308 0.912746 -0.402198 0.694534 0.636901 0.334634 -0.683523 0.621387 -0.382981 0.108225 0.428836 0.896876 0.115373 -0.842545 -0.526125 0.889164 0.102142 0.446042 -0.256424 0.814558 -0.520328 0.671042 0.259888 0.694378 0.46037 0.78335 0.417638 0.0881584 -0.531155 -0.842676 0.820404 -0.440485 0.364569 -0.484582 0.830621 0.274317 0.655194 -0.593492 0.467428 -0.00600371 0.97436 0.224913 0.728874 0.550777 0.406679 0.601942 0.794351 -0.0816771 -0.682677 0.292169 -0.669768 -0.575732 0.632733 -0.517863 0.321125 0.462255 0.826559 -0.351076 -0.0855942 0.932426 -0.237393 0.963673 -0.122386 0.936109 -0.00798698 0.35162 -0.00851163 -0.96549 0.260302 -0.926312 -0.229058 0.299128 0.41092 0.873565 0.260824 0.113356 -0.884351 -0.452851 -0.862104 0.299267 0.408921 0.114123 0.329755 -0.937143 0.287159 0.849564 -0.44247 -0.254071 0.179428 -0.950397 0.678246 0.662718 -0.317469 -0.819692 0.279864 0.499781 -0.54123 -0.670135 -0.507927 -0.513731 0.561963 0.648288 -0.638433 0.166435 -0.751467 -0.197783 0.958669 -0.204539 -0.438373 -0.276875 0.855084 -0.417376 0.141566 -0.897639 0.098663 -0.994908 -0.0205839 -0.315377 0.256019 -0.913779 -0.674354 -0.688221 -0.267579 -0.705095 0.499535 0.503294 -0.400671 -0.625211 -0.669756 0.551737 0.725348 -0.411651 -0.76237 0.639078 0.101839 -0.478661 0.833443 -0.276146 0.714523 -0.38684 -0.582933 0.913652 0.162796 -0.372475 0.506265 -0.569803 0.647317 -0.846283 0.522374 0.104547 0.0786636 -0.228982 0.970247 -0.214125 0.95497 0.205386 0.400794 0.236305 0.885169 -0.0136264 -0.663406 0.748136 0.419615 -0.875452 -0.239804 -0.461097 0.128281 -0.878028 -0.825163 0.355699 0.438844 -0.414421 -0.899709 -0.137036 0.831235 0.374067 -0.411245 -0.669004 0.740238 0.066942 0.119061 0.915483 0.384337 -0.357826 -0.817235 0.45176 0.268994 0.900165 0.342557 0.0474506 0.318468 0.946745 0.0855887 0.117128 -0.989422 0.865021 -0.469617 0.17663 -0.861131 0.323315 -0.392328 -0.718932 -0.674919 0.1662 -0.223232 0.97033 -0.0928816 -0.0140801 0.339853 -0.940373 0.108847 0.580211 0.80716 -0.414593 -0.418173 -0.808235 0.215961 0.740566 0.636335 -0.501291 0.855763 -0.127972 0.0107223 -0.158842 -0.987246 -0.594329 0.606849 0.527737 0.125189 -0.511074 0.850371 0.652666 -0.284138 0.702348 -0.335602 0.819573 -0.464405 0.620221 -0.333649 -0.709933 0.989284 0.119569 -0.0837821 -0.76102 0.250875 0.598256 -0.506888 -0.0317738 0.861426 0.481363 -0.105295 0.870174 -0.317319 -0.946426 0.0598895 0.678937 0.170572 -0.714108 -0.504257 -0.839936 0.200581 -0.176218 0.0286002 0.983936 0.503927 -0.863661 0.0120936 -0.870294 -0.340066 0.356291 -0.0257125 0.77996 0.625301 0.147425 0.430738 -0.890354 -0.314995 0.947797 0.0495874 -0.644022 0.730335 -0.227698 0.0740499 -0.687043 -0.722833 0.0255235 0.217242 0.975784 -0.844149 0.0286244 -0.535344 -0.932094 0.179577 0.314568 0.518198 0.854685 -0.0313782 0.220823 0.867799 -0.445153 0.542324 -0.0351086 0.839435 0.636884 0.0858766 0.766162 -0.065163 0.554679 0.829509 -0.518197 -0.335781 0.786589 -0.806793 -0.264201 -0.528473 -0.453034 -0.89046 -0.0429176 0.128999 -0.662474 0.737894 0.748477 0.553735 0.36491 0.442694 0.504904 0.741009 0.44947 -0.396507 -0.800474 -0.88523 -0.237582 0.399904 -0.340861 0.0377946 -0.939354 -0.0519649 -0.588338 -0.806944 0.393499 -0.566109 0.724347 0.960197 -0.22825 0.161011 -0.0309537 0.997506 -0.063425 -0.549218 0.642299 0.534614 0.134002 0.450921 -0.882447 -0.990238 -0.0979932 0.099123 