# vtk DataFile Version 4.0
Generated by libgran
ASCII
DATASET POLYDATA
POINTS 121 FLOAT
-3.2965 -5.54252 9.10069 -3.20903 -5.15115 10.8576 -3.52441 -4.01116 11.3892 0.40408 -2.91659 10.7641 -0.974119 -2.89987 10.0468 -1.50282 -4.27262 12.3092 -1.54281 -3.08386 9.12978 -2.26583 -2.5177 6.76089 -3.39905 -1.76771 5.80848 -2.10144 -4.13608 7.86704 -0.917953 -1.66969 7.66389 -3.55599 -1.44172 4.45367 -4.28326 -1.4932 3.24112 -5.58001 -0.211963 3.18038 -2.81533 -2.55756 4.048 -2.15777 -4.13361 4.24248 -1.43826 -2.6317 4.93102 -6.66677 -0.177461 3.53583 -6.92276 -1.27669 0.676776 -4.02624 -2.42652 10.537 3.50937 -1.59478 7.32107 6.03085 -0.547261 6.66848 6.12954 0.536048 5.6471 7.32 -0.42509 6.0998 6.39634 -1.39878 5.97231 4.74931 -0.915404 7.88073 6.26455 2.37149 5.84113 8.38884 -1.29156 5.97856 7.52342 2.9797 5.70822 6.75904 3.60859 5.20386 7.12723 4.84248 3.86329 6.59985 4.17715 3.33488 8.41802 4.71323 0.731142 8.21676 5.46923 2.93722 6.86532 5.04755 2.92024 6.86849 6.24062 4.117 5.69286 4.55862 1.64835 4.82582 5.695 0.734048 1.48136 -1.25889 8.41881 1.5115 -0.772406 6.68387 -0.338291 -0.320338 12.2904 -0.748027 0.964657 11.4449 -0.919523 -1.98955 11.9393 -0.35796 0.774495 10.0197 -0.0550532 -0.305279 8.80479 0.0961123 -0.163661 7.72804 -0.114602 1.21075 7.46612 10.2402 -6.2699 3.03252 13.0765 -6.72116 3.60426 10.0841 -5.0917 4.61954 9.68384 -5.86624 5.61074 8.89099 -4.93298 2.90805 9.74156 -3.68023 5.41057 8.37518 -4.49631 7.1567 8.99854 -5.22598 7.81679 8.60326 -6.12833 7.64497 6.84254 -3.2313 5.93647 6.82024 -3.94111 4.79401 7.19771 -4.11176 3.47234 8.99183 -5.91512 8.54138 10.2142 -4.60843 8.3227 14.2954 -9.59491 2.07711 13.7069 -7.97096 2.59092 13.2672 -9.7148 2.585 12.5621 -11.9931 0.698317 12.8729 -10.8316 2.04066 12.8965 -10.9417 0.0969326 -5.39205 -0.12857 0.852281 -0.535247 5.703 -10.0853 -0.393421 4.71735 -9.50478 1.76631 7.20278 -10.631 1.47081 8.48181 -11.688 1.78961 8.78282 -9.97493 0.851656 8.35758 -13.3758 1.68481 9.53911 -12.0579 -0.140736 8.80232 -14.2268 2.10833 9.58452 -8.23383 1.703 10.4361 -6.69823 0.510021 9.63762 -6.95835 -5.91732 1.56191 -13.4133 -6.94748 2.65891 -14.5498 -4.6631 0.910108 -13.477 -6.30675 3.56882 -15.1591 -4.6224 -0.679224 -12.2795 -3.63873 0.838863 -11.5658 -3.56496 0.727318 -9.83379 -2.6724 1.5409 -9.09665 -1.6633 2.58101 -9.9564 -3.57201 -0.190199 -8.73899 -6.72146 0.564329 -8.86965 -6.06301 -0.339669 -9.84558 -7.75074 0.262669 -7.51392 -6.90171 1.38359 -7.26325 -5.45343 -0.798559 -10.7405 -3.04523 0.809549 -6.28438 -4.9092 0.225989 -5.32054 -5.48841 0.264526 -6.26568 -5.52022 1.17752 -4.57133 -4.21156 1.77911 -6.76666 -5.99058 1.98414 -6.96706 -6.39912 3.02105 -6.68579 -5.63178 -1.29253 -6.53255 -3.45913 -2.77656 -4.7057 -5.23758 3.96654 -5.96771 -4.65596 4.61849 -4.38025 -5.10745 3.72686 -4.41426 -3.90649 5.44757 -3.03281 -5.16792 4.28672 -3.58789 -1.54736 -1.03188 -3.89828 -2.15981 -2.24837 -3.51475 -4.97511 -1.09168 0.26478 -2.30689 -0.505461 -0.575706 -3.64299 -0.366208 0.625558 -8.99284 1.81115 -2.45305 -7.35064 2.44366 -3.09887 -7.81236 2.41054 -4.62514 -6.44752 1.62487 -3.74919 -9.38727 2.83313 -3.46085 -9.98604 4.46924 -3.00021 -9.3077 4.27481 -4.4192 -11.9051 5.12014 -4.32484 

POINT_DATA 121
FIELD FieldData 1
normals 3 121 double
0.476784 0.17952 0.860494 -0.389309 0.211854 0.896413 0.0739236 0.92813 -0.364842 0.696766 0.621223 0.358608 -0.681433 0.637948 -0.358708 0.111171 0.393105 0.912748 0.112744 -0.821936 -0.558309 0.886474 0.0819654 0.455461 -0.246753 0.831956 -0.496952 0.671376 0.230286 0.704431 0.461398 0.766044 0.447536 0.0898177 -0.505973 -0.85786 0.817088 -0.454492 0.354688 -0.479667 0.826749 0.293948 0.650838 -0.609858 0.452197 -0.00672796 0.966194 0.257727 0.726232 0.53571 0.430815 0.607092 0.792248 -0.0615054 -0.679895 0.312766 -0.663265 -0.575754 0.65651 -0.487341 0.313834 0.432711 0.845144 -0.355454 -0.121478 0.926766 -0.256768 0.961831 -0.0946151 0.933687 0.000692714 0.358089 0.0100356 -0.972997 0.230598 -0.926096 -0.246665 0.285486 0.391774 0.873611 0.288645 0.135152 -0.867163 -0.479334 -0.867097 0.265399 0.421552 0.102717 0.36349 -0.925918 0.265471 0.870399 -0.414646 -0.261907 0.205072 -0.943054 0.66131 0.688727 -0.297192 -0.82406 0.243645 0.511431 -0.527377 -0.665325 -0.528408 -0.524208 0.52774 0.668354 -0.645081 0.1764 -0.743474 -0.22196 0.959974 -0.170833 -0.442441 -0.312117 0.840731 -0.412306 0.174366 -0.894204 0.0953935 -0.99375 -0.0579827 -0.314342 0.291245 -0.903529 -0.676625 -0.675461 -0.293138 -0.704409 0.481407 0.521589 -0.401502 -0.598367 -0.693364 0.552667 0.739984 -0.383383 -0.763381 0.634426 0.121462 -0.491824 0.83607 -0.243099 0.727159 -0.348299 -0.591547 0.912693 0.190836 -0.361348 0.512407 -0.583712 0.629857 -0.857362 0.500855 0.118633 0.0749705 -0.260741 0.962493 -0.234793 0.942879 0.236327 0.388568 0.213211 0.896413 -0.00671083 -0.68914 0.724597 0.43616 -0.85952 -0.266439 -0.458456 0.149708 -0.876017 -0.835919 0.32036 0.445655 -0.395279 -0.902349 -0.171818 0.827055 0.404339 -0.3905 -0.685293 0.722432 0.092009 0.0967997 0.901509 0.421795 -0.342833 -0.842328 0.415872 0.259345 0.886968 0.382135 0.0514503 0.274507 0.960208 0.0750495 0.16449 -0.983519 0.861787 -0.479283 0.166167 -0.872799 0.345139 -0.345109 -0.730973 -0.640505 0.235438 -0.193944 0.974845 -0.109828 -0.101548 0.304186 -0.947185 0.217247 0.605198 0.765858 -0.51761 -0.428416 -0.740635 0.315545 0.753112 0.577281 -0.474783 0.873158 -0.11035 -0.101479 -0.196496 -0.975239 -0.506813 0.65509 0.560355 0.191641 -0.484035 0.853805 0.685834 -0.281616 0.671062 -0.344327 0.815385 -0.465389 0.568383 -0.370182 -0.734783 0.985057 0.0945315 -0.143967 -0.716533 0.290569 0.634153 -0.454812 0.000424122 0.890588 0.528587 -0.111968 0.841462 -0.36397 -0.925551 0.104316 0.645135 0.114555 -0.755433 -0.535637 -0.80555 0.253344 -0.163382 0.0352036 0.985935 0.495072 -0.868794 0.0100068 -0.865897 -0.336863 0.369792 -0.0168668 0.784053 0.620464 0.114503 0.409904 -0.904913 -0.315296 0.948046 0.0423925 -0.646094 0.729294 -0.225152 0.0668875 -0.690756 -0.719987 0.0350714 0.222237 0.974362 -0.851031 0.0215201 -0.524674 -0.927994 0.183502 0.324273 0.51946 0.853412 -0.0430056 0.210264 0.866296 -0.453123 0.548913 -0.0289924 0.835377 0.642082 0.0920822 0.761086 -0.0604686 0.559862 0.826376 -0.511953 -0.331769 0.79236 -0.809945 -0.269219 -0.521067 -0.451484 -0.89163 -0.0340149 0.13796 -0.659304 0.739111 0.750409 0.557182 0.355576 0.444853 0.483828 0.753669 0.448831 -0.380897 -0.808374 -0.887268 -0.241644 0.39289 -0.350333 0.0255146 -0.936278 -0.0592531 -0.593664 -0.802529 0.402471 -0.56055 0.723741 0.962368 -0.225118 0.152215 -0.044094 0.996464 -0.071515 -0.554674 0.63965 0.532151 0.123666 0.445223 -0.886839 -0.990517 -0.0880644 0.105457 