# vtk DataFile Version 4.0
Generated by libgran
ASCII
DATASET POLYDATA
POINTS 121 FLOAT
-7.18178 -5.90113 11.0822 -6.35322 -4.9752 12.3875 -6.90583 -4.09354 13.1613 -2.31864 -6.39614 11.6626 -2.51454 -5.0422 10.926 -4.29878 -4.7772 13.1563 -2.72947 -4.53939 9.97777 -1.70626 -2.53675 7.16071 -2.7035 -1.81798 6.04591 -3.64182 -4.31785 8.51754 -0.273287 -1.75451 7.98894 -2.95524 -1.74579 4.66826 -3.92386 -1.93972 3.65529 -5.09563 -0.543955 3.58011 -2.42593 -3.0118 4.39389 -1.91569 -4.58888 4.84838 -0.892192 -3.10981 4.95925 -6.10193 -0.324616 4.07792 -7.37643 -2.2719 0.657617 -8.63958 -3.39916 13.129 5.03884 -2.53563 9.90587 7.6533 -1.73735 9.27792 7.78211 -0.881011 8.06271 8.9747 -1.66194 8.77961 8.10407 -2.69107 8.7979 6.28235 -1.8444 10.4426 7.84027 0.957531 7.85982 10.1092 -2.447 8.8458 9.05329 1.59813 7.55877 8.23358 2.07995 6.98426 8.47392 3.06228 5.42465 7.97241 2.2814 5.05219 10.7881 2.72436 1.72608 9.48745 3.56719 4.34979 8.16635 3.07333 4.47318 8.13441 4.46615 5.42958 6.984 2.2906 3.3683 6.00473 3.18618 2.31095 2.44116 -1.64146 9.73168 3.3715 -2.25241 8.31439 -0.0811027 0.617813 12.442 0.089497 1.60483 11.2048 -1.35535 -0.653649 12.5268 0.526956 0.986477 9.92203 0.715766 -0.363428 8.98622 0.960556 -0.422899 7.91902 0.968544 0.880004 7.36734 11.8214 -8.01135 6.51587 14.2121 -9.73901 8.15114 13.6255 -5.68398 6.22668 14.9333 -5.68115 6.04733 10.481 -6.67227 6.33302 13.2507 -3.48747 7.25296 15.6766 -2.66713 7.4562 16.4935 -2.35355 6.6874 17.2833 -2.92732 6.90416 8.56155 -4.49345 9.11527 8.47625 -5.42177 8.14547 8.79526 -5.80819 6.85421 17.4195 -2.00489 6.54281 15.9497 -1.55167 5.60282 15.2457 -12.0632 5.77902 14.9933 -10.7528 6.99005 14.2959 -11.4733 5.49715 14.7386 -11.4789 2.48879 14.1886 -11.5758 4.20215 15.6763 -10.9334 3.12294 -5.54812 -0.0796501 -0.177805 -0.154039 6.36057 -13.4179 -0.123723 5.22538 -13.6155 2.51075 7.52955 -14.3761 2.46592 9.10092 -14.9838 3.31948 8.74045 -13.4777 1.4085 9.72565 -16.3026 2.99457 10.0846 -15.2151 0.504127 10.7197 -16.62 4.37556 8.82161 -11.8487 4.79549 9.25179 -10.1498 3.09256 10.0266 -8.55438 -8.08452 6.20249 -17.4481 -7.6198 6.74867 -19.1922 -7.82835 5.10311 -16.5951 -6.39507 6.62506 -19.4996 -7.41078 3.01204 -14.6916 -5.60052 3.71208 -14.4538 -4.6645 2.71243 -13.3849 -3.2522 2.79805 -13.3807 -2.45573 3.78985 -14.4858 -4.54804 1.39821 -12.8375 -8.53667 4.17048 -10.8068 -7.98774 3.34561 -11.912 -9.99109 3.92155 -9.90614 -9.01696 4.60173 -9.11338 -7.79511 2.90352 -12.9846 -5.87864 2.65247 -7.49441 -8.19014 1.1025 -6.54165 -8.7922 0.454145 -7.2105 -9.14278 1.67348 -5.76284 -6.58881 4.01213 -7.91858 -8.12613 4.79205 -8.4434 -8.34206 5.8055 -7.94594 -7.96435 -0.898549 -7.1788 -4.92557 -1.87432 -5.43489 -7.32324 6.17258 -6.68654 -7.20865 6.30799 -4.88324 -7.82999 5.63918 -5.29144 -6.8113 6.59262 -3.20223 -8.03925 6.03559 -4.39753 -2.31152 -1.15881 -5.45629 -3.28946 -1.72686 -4.60605 -4.68232 -0.863127 -0.466034 -3.02094 0.381604 -2.42705 -4.04085 0.475054 -0.944303 -10.7675 0.227041 -1.84523 -10.8282 1.64682 -3.66817 -11.5383 0.945058 -4.91199 -9.88073 1.61067 -4.67309 -12.2399 0.0206131 -1.77494 -13.3069 0.918031 -0.633159 -13.9245 0.368895 -1.9854 -16.164 -1.16317 -0.467078 

POINT_DATA 121
FIELD FieldData 1
normals 3 121 double
0.635406 0.686376 0.35376 0.193152 0.23956 0.951474 -0.74576 0.642095 -0.177642 0.717197 -0.568406 0.403166 0.521298 0.785538 -0.333435 0.231357 0.0998318 0.967733 -0.736231 -0.282727 -0.61484 0.887228 0.0293318 0.460397 -0.110017 0.748096 -0.654407 0.176117 -0.504269 0.845397 0.545742 0.752906 0.367829 -0.141722 -0.6759 -0.723239 0.826901 -0.481965 0.289734 -0.344868 0.913802 0.214552 0.671031 -0.590111 0.448872 0.16079 0.986973 -0.00561239 0.862709 0.492102 0.116487 0.661426 0.694463 -0.283262 -0.355586 0.422594 -0.83365 -0.987997 0.0522854 0.145357 0.290087 0.533983 0.794173 -0.417532 0.0501961 0.907275 -0.288727 0.906539 -0.307935 0.903868 0.125609 0.408957 0.0332322 -0.903524 0.427247 -0.953419 -0.157245 0.257421 0.346894 0.932004 0.105042 0.230655 -0.910664 -0.342768 -0.86612 0.29141 0.406099 0.0464088 0.190413 -0.980607 0.193931 0.791924 -0.579005 -0.307569 0.0110444 -0.951462 0.324411 0.887411 0.327504 -0.819606 0.287015 0.495852 -0.501501 -0.78088 -0.372456 -0.533432 0.611939 0.583936 -0.680845 -0.00184403 -0.732425 -0.29843 0.89742 -0.324927 -0.817481 0.0951626 0.56804 0.112858 -0.515779 -0.849256 -0.365262 -0.89363 0.260785 -0.194663 0.0933834 -0.976415 -0.908984 -0.377832 -0.176042 -0.632122 0.711733 0.306364 -0.443311 -0.638173 -0.629452 0.688101 0.578703 -0.437744 -0.680113 0.7242 -0.113934 -0.483199 0.831957 -0.272703 0.731342 -0.640325 -0.234782 -0.7425 -0.364464 -0.562013 0.565323 -0.361644 -0.741366 -0.857177 0.507123 0.0898525 0.251872 0.791458 -0.556915 -0.680664 0.608843 0.40744 0.136219 0.922425 -0.361353 0.926031 0.348652 -0.144598 0.424255 -0.898852 -0.109873 -0.509561 -0.0294716 -0.85993 -0.828578 0.356949 0.431331 0.789811 -0.573773 0.216756 -0.680004 -0.120545 -0.723231 -0.202378 0.937006 0.284715 -0.0499424 0.373434 0.926312 -0.747336 -0.347089 -0.566585 0.0899581 0.147699 0.984933 -0.639984 -0.244581 0.728424 0.847772 0.397786 -0.350784 0.985721 0.168285 -0.00579645 -0.805336 0.511527 0.299625 -0.775019 -0.623655 0.101976 0.178377 0.970847 0.160118 -0.223209 0.600515 -0.767828 0.630357 0.240051 0.738259 -0.834213 0.024221 -0.55091 0.751858 0.383144 0.536573 -0.0701577 0.969838 0.233436 -0.425716 0.158894 -0.890797 -0.00578055 0.589077 0.808057 0.251701 -0.876798 0.409722 0.0450782 -0.131603 0.990277 0.509798 0.414569 -0.753816 0.211091 -0.967785 -0.137231 0.714933 -0.538178 0.446359 -0.280423 0.418725 0.863732 0.188504 -0.353144 0.916382 0.747507 -0.646507 0.152515 -0.6648 -0.732135 0.148388 0.131669 0.259666 -0.95668 -0.631045 -0.66771 0.3949 -0.460205 -0.144443 0.875984 0.088722 -0.969321 -0.229227 -0.99422 -0.104488 0.0246666 -0.0200834 0.575685 0.817425 0.10391 0.527238 -0.84334 -0.0837613 0.965107 0.248097 -0.995562 0.0547426 -0.0765494 0.3935 -0.703099 -0.592292 0.0429218 0.516239 0.855368 -0.62641 0.39455 -0.672265 -0.910908 0.385366 0.147445 0.69498 0.62809 0.350008 -0.434354 0.649595 -0.62399 0.658509 -0.0481083 0.751034 0.323842 -0.261007 0.909396 -0.209255 0.396412 0.893907 -0.830598 -0.272396 0.485704 -0.606609 0.111785 -0.787102 -0.621342 -0.668808 -0.408203 -0.000345047 -0.372478 0.928041 0.977599 0.195571 0.0777996 0.119919 0.951762 0.282433 0.498364 -0.47987 -0.722051 -0.52155 -0.38642 0.760701 -0.658389 -0.731164 -0.178672 0.166621 -0.615215 -0.770551 0.876655 0.0865516 0.473271 0.780872 0.579057 -0.234374 -0.814045 0.524735 0.248964 -0.252953 0.372683 0.892817 -0.870514 -0.176454 -0.459423 -0.586716 -0.776254 0.230639 