# vtk DataFile Version 4.0
Generated by libgran
ASCII
DATASET POLYDATA
POINTS 121 FLOAT
-3.28281 -5.44595 9.11665 -3.19301 -5.02935 10.8676 -3.50462 -3.88083 11.3828 0.426117 -2.80653 10.7396 -0.952743 -2.79574 10.0234 -1.48327 -4.1352 12.3054 -1.52296 -2.99089 9.10967 -2.24891 -2.45534 6.73545 -3.38281 -1.71479 5.77647 -2.08617 -4.05915 7.86252 -0.896671 -1.599 7.62393 -3.54213 -1.40541 4.41805 -4.2717 -1.46977 3.2075 -5.56455 -0.185317 3.13287 -2.80549 -2.52839 4.02497 -2.15302 -4.10407 4.23868 -1.42641 -2.59575 4.90539 -6.65047 -0.14282 3.49001 -6.91568 -1.27776 0.64581 -4.00198 -2.3075 10.5074 3.52823 -1.54736 7.2718 6.05349 -0.520387 6.60049 6.15931 0.551475 5.56781 7.34208 -0.416043 6.02702 6.40906 -1.38233 5.91206 4.77276 -0.866996 7.81993 6.31147 2.38743 5.74342 8.40243 -1.29369 5.91179 7.57638 2.98165 5.60472 6.81855 3.61254 5.09301 7.19979 4.82797 3.7393 6.66603 4.16224 3.21785 8.49081 4.6516 0.609544 8.29603 5.43361 2.80712 6.94044 5.02536 2.79391 6.95499 6.23132 3.97759 5.76377 4.53438 1.52671 4.90892 5.66938 0.599303 1.50449 -1.1864 8.36945 1.5327 -0.724623 6.62775 -0.30694 -0.187106 12.2304 -0.713748 1.08727 11.3675 -0.893535 -1.85926 11.903 -0.325966 0.875977 9.94478 -0.0279694 -0.221628 8.74468 0.122577 -0.095689 7.6659 -0.0833437 1.27588 7.38592 10.2015 -6.32165 3.01856 13.0358 -6.78937 3.58648 10.0603 -5.12241 4.58918 9.65613 -5.88236 5.59006 8.86371 -4.97468 2.88042 9.73195 -3.69951 5.36486 8.36414 -4.48364 7.12445 8.98312 -5.21144 7.7907 8.57919 -6.11206 7.63033 6.83897 -3.21901 5.89451 6.80777 -3.9411 4.75999 7.17979 -4.1309 3.43939 8.97263 -5.89231 8.52303 10.2059 -4.59922 8.2857 14.2227 -9.69324 2.09166 13.6512 -8.05745 2.58673 13.1948 -9.79691 2.6036 12.4755 -12.0963 0.748171 12.793 -10.9184 2.07446 12.819 -11.0561 0.132534 -5.38099 -0.132374 0.803556 -0.650856 5.73125 -9.83872 -0.523401 4.74009 -9.26426 1.65991 7.27417 -10.229 1.42085 8.56716 -11.2833 1.60791 8.84233 -9.54663 0.930256 8.46297 -13.0142 1.64206 9.63449 -11.6185 -0.00482991 8.90596 -13.9286 1.78422 9.61755 -7.77359 1.2518 10.4339 -6.25777 0.0962912 9.61936 -6.6181 -5.78223 1.50854 -13.4386 -6.76904 2.61737 -14.6017 -4.52261 0.864408 -13.4589 -6.10762 3.5386 -15.1706 -4.50978 -0.735398 -12.2753 -3.58331 0.795151 -11.5101 -3.58353 0.681607 -9.77665 -2.74825 1.5141 -8.99484 -1.73207 2.58861 -9.80235 -3.61397 -0.244021 -8.68909 -6.69845 0.485492 -8.92548 -6.03499 -0.425549 -9.89141 -7.7372 0.198603 -7.57377 -6.88246 1.31563 -7.3251 -5.39795 -0.877735 -10.7705 -3.03127 0.731015 -6.3375 -4.89825 0.161235 -5.37135 -5.47722 0.195012 -6.31681 -5.50596 1.12032 -4.6291 -4.19213 1.70375 -6.82655 -5.96992 1.91517 -7.03125 -6.37565 2.95505 -6.75697 -5.62786 -1.36317 -6.57283 -3.46278 -2.8434 -4.735 -5.21035 3.90011 -6.04442 -4.62418 4.55896 -4.4615 -5.08026 3.66947 -4.4896 -3.86943 5.39259 -3.11982 -5.13722 4.23478 -3.6667 -1.54325 -1.10183 -3.93949 -2.16121 -2.31284 -3.54756 -4.9683 -1.10427 0.227633 -2.29954 -0.538051 -0.625075 -3.63316 -0.378482 0.576412 -8.97581 1.79188 -2.5178 -7.32966 2.40822 -3.16722 -7.79055 2.36677 -4.69354 -6.43108 1.57927 -3.8109 -9.35978 2.81104 -3.53247 -9.94146 4.4561 -3.08193 -9.26716 4.24545 -4.50053 -11.8563 5.10897 -4.40829 

POINT_DATA 121
FIELD FieldData 1
normals 3 121 double
0.477882 0.190603 0.857496 -0.388089 0.225997 0.893483 0.0764799 0.922518 -0.378301 0.698963 0.624102 0.34921 -0.679897 0.634893 -0.366948 0.112943 0.405642 0.907027 0.109678 -0.830044 -0.546806 0.887782 0.0856589 0.452223 -0.246116 0.826212 -0.506754 0.672891 0.238216 0.700337 0.464459 0.770683 0.436263 0.086801 -0.516839 -0.851671 0.816372 -0.452485 0.358879 -0.476477 0.831967 0.284256 0.649838 -0.606134 0.458598 -0.00262863 0.969547 0.244891 0.729244 0.538772 0.421814 0.609448 0.78947 -0.0728778 -0.680242 0.306411 -0.66587 -0.573842 0.650813 -0.49714 0.317703 0.442451 0.838631 -0.353907 -0.108697 0.928943 -0.248094 0.963166 -0.103738 0.934677 -0.00435237 0.355472 0.00165905 -0.970645 0.240512 -0.926827 -0.237912 0.290499 0.400253 0.872789 0.279351 0.125675 -0.873297 -0.470701 -0.864659 0.278564 0.418051 0.106832 0.352318 -0.929763 0.274411 0.863114 -0.423948 -0.259357 0.197391 -0.945395 0.668344 0.678771 -0.30428 -0.82183 0.257471 0.508237 -0.533767 -0.665722 -0.521447 -0.519217 0.540236 0.662237 -0.6429 0.174747 -0.74575 -0.211949 0.96025 -0.181654 -0.441862 -0.29811 0.846102 -0.41365 0.163662 -0.895605 0.0923498 -0.994741 -0.0442911 -0.314458 0.279631 -0.907151 -0.678944 -0.677415 -0.283096 -0.70224 0.490919 0.515614 -0.404243 -0.606686 -0.684485 0.554789 0.732626 -0.394295 -0.76071 0.638947 0.11431 -0.485379 0.836908 -0.252967 0.721972 -0.362385 -0.589435 0.913329 0.179201 -0.365673 0.509158 -0.580747 0.63521 -0.852442 0.510056 0.114825 0.0758496 -0.250638 0.965105 -0.225534 0.947552 0.226452 0.393447 0.219754 0.892697 -0.0104843 -0.680871 0.732329 0.428255 -0.866027 -0.258062 -0.459459 0.143931 -0.87646 -0.831482 0.333729 0.444143 -0.403931 -0.900623 -0.160371 0.829346 0.392459 -0.397695 -0.678072 0.730092 0.0847588 0.106578 0.905696 0.410311 -0.349808 -0.83376 0.427175 0.265521 0.890287 0.369982 0.051986 0.287694 0.95631 0.0779182 0.149947 -0.985619 0.860602 -0.47986 0.170585 -0.859553 0.337096 -0.384103 -0.732097 -0.654063 0.190355 -0.202063 0.973461 -0.107448 -0.036994 0.319523 -0.946856 0.150063 0.594698 0.78982 -0.453605 -0.423713 -0.784034 0.258198 0.747812 0.611646 -0.481481 0.866702 -0.130399 -0.0262438 -0.180519 -0.983221 -0.558666 0.635793 0.532597 0.137866 -0.496002 0.857307 0.658462 -0.288325 0.695195 -0.328353 0.820505 -0.467928 0.601156 -0.355808 -0.71555 0.989777 0.100726 -0.100974 -0.745918 0.274287 0.606938 -0.493399 -0.00995082 0.869746 0.49317 -0.103593 0.863743 -0.342109 -0.936081 0.0819322 0.674076 0.138434 -0.725574 -0.523608 -0.822035 0.223817 -0.168669 0.042231 0.984768 0.494789 -0.868809 0.0188303 -0.870079 -0.32912 0.366936 -0.0153482 0.787903 0.615608 0.142253 0.416623 -0.89788 -0.310962 0.949686 0.0374004 -0.643472 0.729944 -0.23049 0.0645017 -0.696168 -0.714976 0.0357641 0.229136 0.972737 -0.849892 0.0230514 -0.526453 -0.927897 0.188362 0.321757 0.522167 0.851521 -0.0474756 0.215142 0.862019 -0.458953 0.548869 -0.0258482 0.835509 0.64313 0.0935387 0.760023 -0.0569624 0.565318 0.822904 -0.513039 -0.324179 0.794795 -0.811714 -0.268309 -0.518778 -0.456077 -0.889496 -0.0281077 0.134742 -0.654609 0.743863 0.752702 0.556403 0.351932 0.447916 0.492034 0.746508 0.446397 -0.393321 -0.803759 -0.887227 -0.233752 0.397729 -0.349743 0.0228005 -0.936568 -0.0623053 -0.599132 -0.798222 0.398583 -0.557681 0.728096 0.960885 -0.229819 0.154542 -0.034219 0.996358 -0.0780984 -0.54747 0.648704 0.52864 0.12683 0.438049 -0.889959 -0.990783 -0.0826752 0.107302 