# vtk DataFile Version 4.0
Generated by libgran
ASCII
DATASET POLYDATA
POINTS 150 FLOAT
-0.532375 10.7091 3.9989 -1.65912 11.6828 4.99879 -0.0701246 11.671 5.26076 -0.825669 9.32502 4.01531 -0.42008 8.53893 4.89174 0.727349 7.48726 4.72551 -0.264168 5.35856 3.3613 -0.488784 5.40462 4.87405 0.955954 5.70167 1.84614 -0.71289 5.05377 6.15146 -1.97615 4.75382 7.40114 -2.21002 3.99427 6.2255 -3.28822 5.45359 7.80823 1.90649 5.05327 1.2074 3.17872 4.7398 1.2074 4.49159 4.5396 1.43158 4.8642 3.39395 2.77177 5.15618 2.90327 1.43158 -4.7764 6.52306 7.77805 -2.3085 9.7023 8.27782 -2.98386 8.28155 8.7434 -3.33569 11.1796 8.17775 -3.67749 12.506 8.00227 -4.07612 13.7033 7.88902 -3.64708 13.1227 6.89341 -4.88372 15.034 8.32399 -3.3378 12.3985 5.73274 1.06331 12.245 5.13422 1.49493 13.4216 4.9427 2.30324 14.4695 5.0345 0.747265 14.422 4.93962 4.04525 14.3905 4.5799 4.91872 15.0442 4.69757 5.39124 16.6039 5.3702 2.03217 15.9101 1.97048 1.46841 16.9376 2.76322 0.873485 18.4153 1.79274 1.04985 16.3109 3.51255 1.60683 18.7772 0.999998 1.01278 19.481 1.76928 0.750103 20.5025 1.97708 -0.507723 21.7604 1.68889 -0.327343 22.888 1.48109 0.140458 15.622 4.19955 -2.42095 2.72668 6.25681 -0.931611 1.83905 6.96898 0.867368 2.60063 9.76163 -0.258972 1.4261 9.44859 0.0516172 2.00344 8.23718 0.266061 0.0886874 9.56405 -1.20626 1.02505 10.3536 -0.312632 0.427632 10.6596 -0.130481 1.26789 6.39158 6.86643 17.6057 4.31934 6.33046 18.7785 4.90176 5.96562 17.6364 5.11855 6.1868 20.2373 5.16576 8.22564 21.5924 3.82619 6.48547 21.286 4.18039 5.51074 21.9793 4.97622 5.74821 17.1287 6.98361 5.74959 1.16335 1.29481 6.5877 -0.281532 2.28525 7.45548 0.0114971 2.92605 8.59422 0.818514 3.60275 1.66296 -2.70313 12.675 1.43957 -3.75066 12.0111 0.846213 -1.97804 12.4222 1.93518 -4.78577 11.0146 1.37278 -4.51058 9.32484 4.64987 5.05368 17.0958 4.51277 6.93254 16.4805 3.86137 3.88958 16.8208 4.03789 4.1643 18.2871 3.96228 7.49815 15.3764 3.63789 6.94809 13.54 6.7002 8.15499 14.9002 5.28907 8.01271 16.012 3.78325 2.96477 15.8807 2.41135 4.16123 15.7014 3.06613 3.34005 18.8334 -0.619772 3.8495 14.0083 0.847684 4.6431 14.6897 -1.79167 3.86055 13.5658 -1.98844 2.67612 14.382 -0.824004 2.62057 13.0709 -0.207875 1.24298 11.9457 0.378571 -0.370309 12.2136 0.0568634 -1.68341 13.1632 -0.98951 -1.59829 14.1296 -1.13905 -0.650612 15.7049 -0.196141 -1.06403 16.6755 5.18644 -8.59937 67.8899 3.66565 -9.74582 67.5996 4.38526 -9.93614 68.2644 3.62871 -8.33896 67.5289 6.38776 -8.82709 68.6016 7.31491 -8.70739 69.4476 7.5114 -9.73489 68.8313 3.77585 -10.671 67.9736 2.59711 -11.2458 66.8574 2.0322 -7.81015 67.4444 1.4197 -11.3192 66.3311 1.31501 -10.4681 65.4829 1.47514 -12.6605 66.7784 1.93854 -9.88109 63.8056 2.39678 -8.6295 63.2483 1.4344 -8.63632 62.6409 2.40457 -9.51636 65.0911 8.57217 -10.7294 67.6996 8.47757 -12.4022 67.0361 8.43499 -13.6923 67.9184 8.93663 -13.6836 69.7243 8.10584 4.91735 55.3587 7.18492 4.31448 56.2478 6.44172 2.54702 56.4297 4.19856 2.09228 59.227 4.36732 0.497629 59.6844 5.35378 1.88423 56.49 3.58137 1.9109 56.8146 6.16491 0.858664 55.9686 3.22727 2.1917 57.9756 1.78769 1.43324 57.11 4.84507 -0.90197 59.9503 4.45709 -1.10085 58.9427 5.33477 -2.31145 60.2869 0.65342 0.48255 57.5644 5.03135 -5.34222 56.8861 6.63798 -4.54769 56.9581 4.57518 -5.16212 58.0192 6.85996 -3.62879 58.0739 5.58428 -2.43259 58.5144 5.65971 -3.18254 59.4784 5.61905 -3.84359 58.7307 2.61141 -3.75913 61.441 2.92235 -3.94334 62.8815 1.49882 -4.51395 62.0059 4.06417 -3.49493 60.4079 4.98156 -3.92134 59.4957 3.47457 -3.13064 63.4578 1.31017 -6.03469 61.2745 0.351599 -7.46144 63.1207 1.32987 -7.32468 61.6134 3.60943 -2.21972 64.382 4.21792 -1.91733 66.2089 3.6712 -1.98931 67.5915 2.31939 -3.16949 67.7567 3.89324 -0.72068 67.1493 1.6014 -3.81468 68.4319 -4.67193 18.2741 10.1692 

POINT_DATA 150
FIELD FieldData 1
normals 3 150 double
0.242032 -0.781317 -0.575296 -0.884711 0.192374 0.424592 0.704282 0.180621 0.686559 -0.535326 -0.60275 0.591708 0.940915 -0.18334 0.284719 -0.206514 0.868329 0.45095 0.731893 0.129397 -0.669021 0.507276 0.175464 0.843732 0.488229 0.213721 -0.846141 -0.731382 -0.526315 0.433673 -0.531882 0.226367 0.816002 -0.765751 -0.533189 -0.359633 -0.780186 0.473397 -0.408907 0.462311 -0.862121 0.207403 0.809918 0.548649 -0.207403 -0.502944 0.748855 -0.431583 -0.130326 -0.396798 0.908607 0.161644 -0.887473 -0.431583 -0.707993 0.596077 0.378732 -0.170261 0.968418 -0.182146 -0.845613 -0.452328 0.283438 -0.856923 0.508869 0.0820733 0.515118 0.817511 -0.257545 -0.913745 0.379804 0.144288 -0.484704 -0.200811 -0.851315 0.106142 0.950914 0.290681 -0.793976 0.523354 0.309359 0.42915 0.393325 -0.813096 0.00246937 0.783344 0.621583 0.805841 0.264478 -0.529785 -0.750131 0.217025 -0.624663 0.936172 -0.343408 0.0751865 -0.0627045 0.997128 0.0424818 0.535232 0.562533 0.630145 -0.216247 0.106774 0.970483 0.347517 -0.920673 0.177745 -0.247403 0.557098 -0.792738 -0.766071 0.293987 0.571583 -0.980751 0.195263 -2.33309e-08 0.3867 0.508591 0.769284 -0.649379 0.512869 -0.561491 -0.608447 0.745049 0.273302 0.788827 0.382491 -0.481095 -0.143324 -0.982923 0.115416 0.554821 -0.734397 0.390941 0.934521 -0.153236 0.321232 0.767043 0.279554 0.57749 -0.359297 -0.894969 0.264456 -0.0487077 -0.31763 -0.946963 -0.884331 0.442447 0.148998 -0.587987 0.493915 0.640562 0.305637 -0.103502 0.946506 0.13339 0.41792 0.898638 -0.861658 0.500724 -0.0825863 0.325689 0.672081 0.665007 -0.0391489 -0.470001 0.881797 -0.469353 0.786704 -0.401004 0.972141 0.0443425 0.230165 -0.768027 -0.262017 0.584364 -0.206705 0.955279 0.211461 -0.178267 -0.0376948 0.98326 -0.431772 0.852444 -0.294809 0.406335 -0.592443 0.695632 -0.461448 -0.885472 0.0548243 0.677286 -0.078455 0.731525 -0.734668 -0.188207 -0.651798 0.511278 -0.85933 -0.0121476 -0.0820765 0.913293 0.398947 0.0156683 0.175776 0.984305 -0.546729 0.45097 -0.705488 -0.0541592 -0.930463 0.362362 -0.191254 0.948389 -0.252942 -0.734333 -0.233647 -0.63731 -0.557819 0.0410776 0.828946 0.359239 0.382776 0.851135 0.0348478 -0.167289 -0.985292 0.443568 0.0104953 -0.896179 -0.967558 -0.131784 0.215557 0.656211 -0.691157 -0.3028 -0.71569 0.505299 -0.482142 0.413935 0.865325 0.282613 -0.619481 -0.770187 -0.15184 0.847976 0.0234217 0.529517 -0.552417 0.781242 -0.290683 -0.749188 -0.403187 0.525507 0.415249 -0.458738 -0.785574 -0.20088 0.918851 0.339646 0.385566 -0.694439 0.607531 -0.707273 -0.618659 0.34209 -0.3391 0.703772 0.624273 0.189558 0.243911 0.951092 0.753352 -0.657329 0.0194572 0.911375 0.411576 -0.000482089 -0.610631 -0.736351 -0.291404 0.109758 -0.921522 0.372493 -0.646355 0.671984 -0.361474 -0.289952 0.639296 -0.7122 0.637194 0.759003 0.133783 0.83369 -0.268497 -0.482566 0.721044 -0.190701 0.66613 -0.45914 -0.765123 -0.451416 -0.950151 -0.143174 0.276973 0.718273 -0.691725 0.0748436 0.613589 0.159379 -0.773374 -0.662826 -0.64958 0.372434 -0.00993988 -0.427647 0.903891 0.448301 0.823941 0.346623 -0.514076 0.81712 -0.260846 -0.475972 -0.792369 -0.381579 0.227079 -0.726021 -0.649098 -0.321686 -0.946736 -0.0144365 0.279109 -0.34338 0.896765 0.22253 0.352107 0.909121 -0.325375 0.199682 0.924261 0.595542 0.802552 0.0352116 -0.147656 -0.964911 0.217126 -0.493252 0.655689 -0.571642 -0.32449 -0.938957 -0.114308 0.940285 -0.302122 0.156803 -0.832133 -0.275457 0.48133 -0.129157 -0.723445 -0.678193 0.478036 0.556263 0.679745 -0.961542 -0.202202 -0.185879 0.802099 -0.460561 0.38016 0.414218 -0.659456 -0.627329 -0.312563 -0.948897 -0.0435772 0.172728 0.748485 -0.640261 -0.822463 -0.3999 0.404517 0.785305 0.395186 0.476576 0.36553 0.579425 0.728461 0.562673 -0.52392 -0.639459 -0.71301 0.672286 -0.19912 -0.638257 -0.0778456 0.765877 -0.676121 -0.736589 0.0172308 0.494697 0.0295671 -0.868563 0.805632 -0.154645 0.571876 -0.617894 -0.72526 -0.303655 0.958055 0.234634 -0.16455 -0.0407114 -0.661827 -0.74855 -0.253411 0.967349 0.00443647 0.42924 -0.795475 -0.427754 0.56873 -0.357762 -0.740644 0.409541 0.494518 -0.766635 0.388267 -0.056437 0.919817 0.22023 0.358827 0.907051 0.766949 0.430803 -0.475602 -0.584869 -0.749376 -0.310425 -0.544913 0.837827 0.0333944 -0.13312 0.104185 0.985609 0.475054 0.854231 0.211217 