# vtk DataFile Version 4.0
Generated by libgran
ASCII
DATASET POLYDATA
POINTS 121 FLOAT
-3.32233 -5.8394 9.11545 -3.2362 -5.50877 10.8849 -3.56547 -4.39234 11.4565 0.3491 -3.22717 10.8633 -1.02982 -3.20469 10.1476 -1.53844 -4.65826 12.363 -1.59662 -3.36541 9.22504 -2.32166 -2.73155 6.87101 -3.45889 -1.96675 5.9353 -2.14189 -4.38185 7.92762 -0.987376 -1.89598 7.80524 -3.6142 -1.60421 4.58961 -4.33779 -1.63068 3.37406 -5.65423 -0.368445 3.34973 -2.85869 -2.69896 4.15493 -2.18009 -4.27094 4.30504 -1.48461 -2.7807 5.04192 -6.74372 -0.363601 3.6984 -6.96342 -1.36381 0.800242 -4.09097 -2.78479 10.6635 3.44514 -1.7354 7.47704 5.94992 -0.62316 6.87068 6.02196 0.488656 5.87811 7.23828 -0.447355 6.31442 6.34553 -1.44496 6.15552 4.67014 -1.05246 8.06455 6.10115 2.32196 6.11778 8.33393 -1.27732 6.17808 7.33879 2.97458 5.99668 6.55169 3.59194 5.51345 6.87224 4.87429 4.20656 6.36442 4.2069 3.66185 8.15077 4.87536 1.06669 7.93583 5.56238 3.29397 6.59896 5.09684 3.27072 6.56883 6.25547 4.50049 5.43686 4.60509 1.99045 4.52718 5.7371 1.11288 1.4072 -1.47423 8.57672 1.43465 -0.929099 6.85927 -0.426098 -0.692461 12.4743 -0.853225 0.61404 11.6714 -0.985559 -2.35681 12.0689 -0.461016 0.476564 10.2408 -0.143451 -0.55807 8.99085 0.00480246 -0.378375 7.91939 -0.227219 1.00008 7.70024 10.3427 -6.1061 3.08799 13.1858 -6.50375 3.66884 10.1444 -4.99099 4.72396 9.76002 -5.80564 5.68895 8.95714 -4.80361 3.00558 9.75947 -3.61295 5.55659 8.4034 -4.52067 7.26515 9.04244 -5.25183 7.90839 8.67498 -6.15955 7.70588 6.84377 -3.26247 6.07238 6.84568 -3.93911 4.90977 7.23609 -4.05442 3.58587 9.05 -5.96263 8.61174 10.2355 -4.61517 8.4435 14.5035 -9.28098 2.04737 13.8615 -7.69613 2.61627 13.4769 -9.45144 2.54379 12.8034 -11.6625 0.567716 13.1022 -10.5528 1.95576 13.1055 -10.5783 0.00895318 -5.45226 -0.198992 1.02749 -0.158684 5.68785 -11.0333 0.00173851 4.70896 -10.4463 2.13066 6.98829 -11.9901 1.76327 8.26217 -13.0306 2.37958 8.57609 -11.4032 0.866229 8.15127 -14.5896 1.99673 9.28864 -13.4692 -0.214376 8.6583 -15.2839 3.03813 9.38957 -9.76609 2.95825 10.3093 -8.2184 1.67786 9.61088 -8.25449 -6.34341 1.84216 -13.2849 -7.5114 2.93905 -14.2792 -5.14171 1.13537 -13.5264 -6.9515 3.80221 -15.0217 -4.97883 -0.41701 -12.2921 -3.81787 1.06206 -11.8056 -3.46619 0.971948 -10.1068 -2.40548 1.73111 -9.5586 -1.47233 2.66398 -10.6066 -3.35671 0.0854787 -8.99205 -6.71777 0.886594 -8.67284 -6.05897 0.0279948 -9.68872 -7.74194 0.50792 -7.33266 -6.91409 1.63265 -7.03301 -5.5682 -0.456308 -10.6414 -3.0585 1.06545 -6.04739 -4.92326 0.418616 -5.1259 -5.49317 0.491377 -6.07467 -5.55487 1.32791 -4.3421 -4.23319 2.0403 -6.49766 -6.01313 2.23129 -6.70371 -6.43722 3.24986 -6.3814 -5.61525 -1.05373 -6.41218 -3.44683 -2.58703 -4.62373 -5.30047 4.18211 -5.60843 -4.75765 4.77444 -3.98429 -5.18935 3.87605 -4.0652 -4.04711 5.55789 -2.58929 -5.27461 4.39709 -3.21594 -1.56104 -0.857555 -3.72688 -2.165 -2.09441 -3.39906 -5.01627 -1.13388 0.409046 -2.35329 -0.474754 -0.392265 -3.6982 -0.401101 0.804966 -9.05856 1.80094 -2.23339 -7.42136 2.49524 -2.83393 -7.86851 2.52071 -4.36468 -6.49772 1.72173 -3.51032 -9.47461 2.85078 -3.20313 -10.133 4.44674 -2.68641 -9.42539 4.33291 -4.09985 -12.0486 5.12884 -4.01484 

POINT_DATA 121
FIELD FieldData 1
normals 3 121 double
0.476245 0.155403 0.865471 -0.390115 0.175229 0.903939 0.0608419 0.941205 -0.332313 0.688895 0.618047 0.378737 -0.690024 0.640526 -0.337036 0.107948 0.363549 0.925299 0.12322 -0.80125 -0.585505 0.88369 0.0782943 0.461478 -0.253538 0.843098 -0.474241 0.668489 0.215191 0.71191 0.450597 0.757278 0.47275 0.0982279 -0.480564 -0.871441 0.82182 -0.454093 0.344108 -0.494617 0.808144 0.319777 0.657282 -0.614183 0.436761 -0.0213219 0.957797 0.286654 0.716799 0.532441 0.450229 0.594873 0.8033 -0.0288946 -0.68037 0.325639 -0.656549 -0.586341 0.66634 -0.460646 0.302615 0.40972 0.860554 -0.357393 -0.156081 0.92082 -0.285347 0.955735 -0.0717492 0.930969 0.0197237 0.364565 0.0382207 -0.977877 0.205658 -0.922385 -0.273221 0.273049 0.364535 0.87757 0.311424 0.164687 -0.849687 -0.500909 -0.873107 0.224946 0.432532 0.0860076 0.392408 -0.915761 0.234536 0.889949 -0.391131 -0.273277 0.222549 -0.935837 0.636771 0.71825 -0.280428 -0.829056 0.201859 0.521459 -0.507813 -0.667398 -0.544707 -0.537945 0.491229 0.685061 -0.654286 0.175649 -0.735566 -0.255394 0.956353 -0.141998 -0.439639 -0.34839 0.827854 -0.412193 0.196741 -0.889601 0.108442 -0.989971 -0.0905391 -0.318686 0.316529 -0.893448 -0.667904 -0.674378 -0.314832 -0.710895 0.454005 0.537129 -0.393329 -0.580629 -0.712855 0.541582 0.760324 -0.358602 -0.773604 0.618134 0.139454 -0.513078 0.831588 -0.212631 0.741843 -0.304385 -0.597511 0.909004 0.225155 -0.350739 0.524585 -0.589497 0.614251 -0.872519 0.470907 0.130222 0.0747327 -0.287417 0.954886 -0.264014 0.928076 0.262623 0.375023 0.196921 0.905859 0.00755709 -0.710803 0.70335 0.460019 -0.839632 -0.288791 -0.45811 0.162984 -0.873826 -0.848525 0.278284 0.450069 -0.367466 -0.907721 -0.20251 0.818032 0.439737 -0.37075 -0.708131 0.696844 0.113842 0.06616 0.887999 0.45506 -0.318453 -0.867307 0.38258 0.242597 0.875721 0.417444 0.0562171 0.234025 0.970604 0.059486 0.20852 -0.976207 0.868148 -0.471432 0.155149 -0.889141 0.403962 -0.21504 -0.728719 -0.574935 0.372046 -0.135482 0.984443 -0.111881 -0.231905 0.289438 -0.928679 0.384403 0.603366 0.698702 -0.665134 -0.400332 -0.630342 0.465369 0.737038 0.49011 -0.415472 0.907356 -0.063943 -0.274156 -0.210115 -0.938451 -0.35404 0.709563 0.609242 0.287678 -0.478355 0.829709 0.77792 -0.284996 0.560016 -0.390071 0.811895 -0.434363 0.42377 -0.421796 -0.801565 0.949969 0.0512665 -0.308109 -0.592897 0.345191 0.727541 -0.300907 0.0419427 0.952731 0.652587 -0.132052 0.746118 -0.408123 -0.891215 0.197917 0.52502 0.041655 -0.85007 -0.543108 -0.754418 0.368629 -0.164515 -0.0101941 0.986322 0.494292 -0.868793 -0.0295577 -0.859653 -0.36848 0.353863 -0.031802 0.756249 0.65351 -0.00352499 0.38449 -0.923122 -0.327511 0.941456 0.0799802 -0.653604 0.73 -0.199753 0.0837 -0.65724 -0.74902 0.0219987 0.17929 0.98355 -0.847179 0.0333908 -0.530258 -0.932763 0.157604 0.324212 0.508672 0.860958 -0.00190726 0.205784 0.887871 -0.411507 0.539925 -0.0564376 0.839819 0.628078 0.0712949 0.774877 -0.0852633 0.521037 0.849264 -0.516954 -0.377349 0.768353 -0.79581 -0.262411 -0.545736 -0.431691 -0.898385 -0.0809096 0.137945 -0.687791 0.712681 0.741902 0.549059 0.384857 0.432161 0.463458 0.773592 0.459011 -0.342976 -0.819559 -0.885906 -0.269323 0.377672 -0.341265 0.0531324 -0.938464 -0.0412149 -0.558983 -0.828154 0.405933 -0.584448 0.702595 0.964854 -0.214531 0.151769 -0.0747883 0.996709 -0.0312743 -0.583604 0.599253 0.547998 0.124009 0.485425 -0.865439 -0.991246 -0.10035 0.0857947 