# vtk DataFile Version 4.0
Generated by libgran
ASCII
DATASET POLYDATA
POINTS 121 FLOAT
-6.99526 -5.84005 11.0811 -6.25122 -4.89713 12.4245 -6.86012 -4.0289 13.1708 -2.31124 -6.14286 11.566 -2.60193 -4.83989 10.7711 -4.16698 -4.65984 13.0781 -2.84616 -4.39451 9.80143 -1.86215 -2.63119 6.96128 -2.77763 -1.89656 5.78819 -3.7603 -4.3033 8.32842 -0.418553 -1.90189 7.81884 -2.97439 -1.8574 4.4003 -3.9108 -2.0299 3.35374 -4.99164 -0.570872 3.18093 -2.51055 -3.16078 4.18986 -2.11268 -4.74837 4.71459 -1.0104 -3.32701 4.82509 -6.00007 -0.273271 3.63156 -6.87899 -2.06983 0.910532 -8.60556 -3.37376 13.0552 4.98909 -2.53368 9.77633 7.60621 -1.70301 9.20491 7.7473 -0.838131 7.99714 8.93586 -1.60786 8.7326 8.07838 -2.64812 8.72844 6.2144 -1.83323 10.3422 7.78521 1.00222 7.8062 10.0786 -2.37909 8.81713 8.99594 1.66017 7.53485 8.18255 2.13456 6.94537 8.44328 3.12876 5.39659 7.96048 2.34338 5.0092 10.7842 2.80781 1.7636 9.47291 3.65317 4.34665 8.15621 3.14106 4.43876 8.08491 4.52793 5.40165 7.00862 2.34887 3.30436 6.0404 3.23725 2.23088 2.35376 -1.75378 9.58113 3.33176 -2.28491 8.16377 -0.240225 0.575332 12.2126 0.0164987 1.52038 10.9576 -1.57551 -0.632599 12.2862 0.46163 0.846249 9.70599 0.609915 -0.536494 8.81173 0.886527 -0.639659 7.7557 0.983164 0.645259 7.17122 11.9202 -7.89872 6.49925 14.2985 -9.61222 8.14533 13.5054 -5.41468 6.53016 14.7867 -5.10866 6.44513 10.5631 -6.58005 6.29288 12.9927 -3.64668 7.01574 15.0915 -2.8635 7.57539 15.9007 -2.83738 6.738 16.5115 -3.60094 6.94777 8.55404 -4.44583 9.04552 8.50227 -5.3696 8.06903 8.85406 -5.74373 6.78268 16.8732 -2.77626 6.51293 15.5215 -1.97139 5.6329 15.2358 -11.9899 5.78629 15.0369 -10.6621 6.98827 14.3063 -11.3686 5.50458 14.7336 -11.4158 2.49436 14.1889 -11.4781 4.21102 15.6938 -10.8997 3.11943 -5.35825 -0.105302 0.0878597 -0.360717 6.50176 -13.4042 -0.370413 5.35149 -13.3306 2.2923 7.42825 -14.3924 2.28332 8.99863 -15.0042 3.13226 8.62183 -13.4995 1.23741 9.64501 -16.3217 2.83468 9.96875 -15.2396 0.356228 10.6596 -16.6394 4.19441 8.68211 -11.8735 4.62979 9.10719 -10.1773 2.94643 9.92405 -8.58851 -7.92912 6.22764 -17.3202 -7.46209 6.85529 -19.0361 -7.6911 5.0797 -16.5281 -6.24198 6.72212 -19.3576 -7.32016 2.95521 -14.7205 -5.68043 3.78435 -14.3921 -4.93181 2.92037 -13.084 -3.53887 3.02962 -12.8609 -2.57344 3.91131 -13.9239 -4.907 1.67453 -12.3856 -8.51144 4.09806 -10.852 -7.93551 3.27909 -11.9478 -9.98326 3.84037 -9.98262 -9.02851 4.52162 -9.16751 -7.72526 2.8407 -13.0186 -5.93292 2.56784 -7.47259 -8.17942 1.03768 -6.31714 -8.857 0.375191 -6.8935 -9.03189 1.62805 -5.44257 -6.62905 3.92862 -7.91601 -8.15397 4.70875 -8.47555 -8.38102 5.72064 -7.97984 -8.02879 -0.977136 -6.93089 -4.89699 -1.8728 -5.33369 -7.38959 6.08001 -6.69658 -7.31461 6.20266 -4.89029 -7.92532 5.53543 -5.31671 -6.95463 6.47603 -3.19902 -8.15493 5.92492 -4.42476 -2.29968 -1.09888 -5.36309 -3.26831 -1.66742 -4.50256 -4.60217 -0.940509 -0.33324 -2.83971 0.35052 -2.17241 -3.81002 0.363576 -0.653907 -10.3444 0.201541 -1.87904 -10.4508 1.64985 -3.15899 -11.3041 0.918985 -4.29103 -9.63182 1.59022 -4.2701 -11.8158 0.10295 -2.0816 -13.0171 0.640426 -0.850526 -13.4379 0.635766 -2.37838 -15.6925 -0.703749 -0.920486 

POINT_DATA 121
FIELD FieldData 1
normals 3 121 double
0.602277 0.69997 0.383802 0.14177 0.242956 0.959622 -0.750677 0.625272 -0.213351 0.754277 -0.494907 0.431432 0.463585 0.808068 -0.363475 0.36908 0.094066 0.924625 -0.707818 -0.362688 -0.606177 0.870823 -0.0041773 0.491579 -0.0446534 0.730451 -0.681503 0.206325 -0.453894 0.866839 0.572772 0.733476 0.365984 -0.152107 -0.69129 -0.706387 0.784306 -0.518788 0.340182 -0.29654 0.940239 0.167376 0.615946 -0.612088 0.495942 0.218079 0.975506 -0.0287913 0.8842 0.445858 0.139291 0.711886 0.642638 -0.283259 -0.592832 0.256451 -0.763402 -0.99476 0.0298701 0.0977781 0.269003 0.530576 0.80382 -0.435504 0.0396503 0.899313 -0.294414 0.904531 -0.308454 0.894148 0.134804 0.426998 0.0366729 -0.905461 0.422841 -0.956304 -0.169874 0.23796 0.332328 0.935815 0.117508 0.248605 -0.906041 -0.342468 -0.878399 0.277863 0.388852 0.0650107 0.196526 -0.978341 0.195725 0.79768 -0.570437 -0.287075 0.0122939 -0.957829 0.33381 0.892378 0.303699 -0.833906 0.273276 0.479501 -0.4828 -0.785386 -0.387393 -0.554094 0.601484 0.575497 -0.664786 -0.0067987 -0.747003 -0.303437 0.895175 -0.326478 -0.826204 0.0353883 0.562259 0.151804 -0.495737 -0.855103 -0.415575 -0.868359 0.270647 -0.15885 0.0766905 -0.98432 -0.91971 -0.339572 -0.197039 -0.603982 0.750823 0.26734 -0.455696 -0.63192 -0.626912 0.732308 0.528754 -0.429121 -0.635672 0.756164 -0.15536 -0.490627 0.824971 -0.28055 0.706797 -0.667781 -0.233464 -0.652761 -0.306589 -0.692753 0.628533 -0.000563907 -0.777783 -0.866462 0.4937 0.0741832 0.629713 0.619453 -0.468763 -0.447511 0.798557 0.402542 0.361697 0.824676 -0.434839 0.972423 0.0611224 -0.225074 0.438985 -0.892248 -0.105761 -0.490753 -0.0315202 -0.870728 -0.842543 0.342613 0.415618 0.610724 -0.763554 0.209765 -0.74097 0.041316 -0.670266 -0.167225 0.945802 0.278379 -0.0316457 0.382057 0.923597 -0.762259 -0.324433 -0.560093 0.100188 0.152577 0.9832 -0.644874 -0.214861 0.733466 0.859996 0.363529 -0.358125 0.99864 0.0481369 -0.0200137 -0.774786 0.597312 0.207183 -0.784482 -0.552956 0.280762 0.201974 0.966723 0.157011 -0.210955 0.603659 -0.768826 0.637987 0.226856 0.735873 -0.834951 0.0427193 -0.548664 0.762321 0.36646 0.533455 -0.0462314 0.971871 0.230932 -0.424166 0.166574 -0.890133 0.0112093 0.591649 0.806118 0.235653 -0.876063 0.420692 0.0475363 -0.184713 0.981642 0.514564 0.442936 -0.734187 0.19048 -0.963233 -0.189472 0.705545 -0.576114 0.412673 -0.293065 0.415299 0.861185 0.0364001 -0.250177 0.967516 0.712224 -0.613807 0.340555 -0.680715 -0.72306 0.117518 0.284715 0.158622 -0.945397 -0.68741 -0.632028 0.357783 -0.47773 -0.149238 0.865738 0.0982038 -0.968202 -0.230088 -0.994096 -0.108445 0.00363931 -0.0393447 0.572801 0.81875 0.11204 0.529808 -0.840685 -0.0850977 0.966312 0.2429 -0.997589 0.054708 0.0426957 0.320007 -0.717195 -0.619053 0.14512 0.53566 0.831871 -0.611034 0.394465 -0.68632 -0.913885 0.385667 0.126787 0.686843 0.626217 0.368917 -0.50821 0.635133 -0.581661 0.656065 -0.0140601 0.754574 0.304587 -0.266841 0.914343 -0.22961 0.389487 0.891953 -0.840325 -0.277737 0.465527 -0.589593 0.116113 -0.799311 -0.610716 -0.667224 -0.426425 0.00399411 -0.349097 0.937078 0.972617 0.219443 0.0765541 0.242559 0.883343 0.401086 0.420722 -0.433798 -0.796751 -0.54959 -0.420742 0.721753 -0.644644 -0.570613 -0.508758 0.073966 -0.633125 -0.770507 0.927222 0.0977448 0.361533 0.74505 0.573488 -0.340605 -0.826704 0.472023 0.306195 -0.374586 0.0654527 0.924879 -0.795438 0.0607928 -0.602978 -0.63435 -0.665284 0.393697 