# vtk DataFile Version 4.0
Generated by libgran
ASCII
DATASET POLYDATA
POINTS 121 FLOAT
-4.49505 -6.82363 11.5309 -4.23147 -5.33006 12.5042 -5.14136 -4.46748 12.8352 -0.371926 -3.54229 11.3535 -1.58169 -3.28274 10.4137 -2.52738 -3.93029 12.8596 -2.05339 -3.47644 9.44508 -1.99701 -3.00277 6.70718 -3.02703 -2.20775 5.67724 -2.62456 -4.53079 8.18976 -0.623579 -2.24041 7.64728 -3.17858 -1.95646 4.30599 -3.99297 -2.05304 3.15304 -5.24259 -0.725156 3.10803 -2.52713 -3.13824 3.93557 -1.93942 -4.73109 4.20309 -1.09514 -3.22697 4.72492 -6.30892 -0.63581 3.51241 -6.74226 -1.81851 0.708946 -6.94164 -4.38882 12.3434 3.92301 -2.40232 7.88065 6.4973 -1.34567 7.52598 6.65266 -0.341984 6.43282 7.8409 -1.14426 7.13308 7.03181 -2.21001 6.96874 5.06944 -1.68193 8.5727 6.61369 1.50803 6.4586 8.98209 -1.91378 7.24891 7.8094 2.23644 6.34876 7.01706 2.74414 5.75833 7.33681 3.9157 4.35107 6.9162 3.16202 3.84604 8.82719 3.71137 1.31183 8.41029 4.59244 3.44159 7.11427 4.0256 3.38236 6.91746 5.29136 4.48453 6.08136 3.3253 2.08851 5.15074 4.29359 1.05148 1.74726 -2.00217 8.65211 2.0626 -1.5872 6.92702 -0.483148 -0.567609 12.3095 -0.497129 0.646111 11.2796 -1.48068 -2.05448 12.1057 -0.00985953 0.273124 9.92212 0.27364 -0.918883 8.81194 0.526299 -0.837494 7.74806 0.460514 0.524106 7.36896 11.6105 -6.82614 4.80393 14.3996 -6.94095 5.7823 11.1156 -5.67402 6.4048 10.6237 -6.44061 7.36035 10.1865 -5.59898 4.50453 10.5784 -4.25046 7.09096 9.01782 -5.1034 8.6288 9.55209 -5.78096 9.41123 9.25197 -6.70969 9.19353 7.60994 -3.99757 7.13874 7.784 -4.77412 6.05421 8.35899 -4.9436 4.80557 9.45395 -6.45848 10.1402 10.6125 -5.07772 10.1155 16.3231 -9.44733 4.33033 15.378 -7.9944 4.82355 15.2845 -9.78605 4.69902 14.9059 -11.9692 2.61642 15.0486 -10.8955 4.05666 15.0811 -10.8321 2.11098 -5.16433 -0.723897 0.775466 -0.859105 6.82039 -13.5276 -0.641002 5.83652 -12.968 1.20977 7.84105 -15.131 0.718536 9.1539 -16.0667 1.80155 9.3841 -14.688 -0.600186 9.17658 -17.2947 0.960015 10.1317 -16.6015 -1.75077 9.84029 -17.6722 2.98785 10.1043 -13.328 3.48041 11.0385 -11.8677 2.14836 10.5568 -11.5183 -7.7595 3.07281 -13.4414 -9.19261 4.13863 -14.0467 -6.71073 2.31525 -14.0143 -8.91082 4.9657 -14.9667 -6.1567 0.847547 -12.7909 -4.8938 2.3216 -12.8288 -4.00193 2.32739 -11.338 -2.81037 3.08187 -11.2244 -2.20488 3.89729 -12.5689 -3.54151 1.50993 -10.2609 -7.02999 2.19485 -8.89447 -6.37997 1.46164 -10.0094 -7.97977 1.56832 -7.593 -7.29572 2.75635 -7.19203 -6.17733 0.932482 -11.0399 -3.35903 2.65693 -6.31942 -5.07534 1.68923 -5.41978 -5.70632 1.74704 -6.33015 -5.78124 2.43605 -4.53431 -4.68165 3.47902 -6.64773 -6.47515 3.43823 -6.81751 -7.02347 4.35733 -6.39823 -5.65542 0.229951 -6.79062 -3.85936 -2.17497 -5.01309 -6.01843 5.36527 -5.54224 -5.55557 5.8855 -3.86938 -5.86099 4.94688 -4.02971 -4.95345 6.63672 -2.40725 -6.01343 5.37719 -3.14 -1.29481 -2.19847 -4.13605 -2.59943 -2.56671 -3.73064 -4.80843 -1.71639 0.196788 -2.16996 -1.23708 -0.787393 -3.43678 -1.03027 0.477508 -9.04549 1.4632 -2.27934 -7.76018 2.7614 -2.74799 -8.34475 2.96351 -4.2181 -6.72043 2.4732 -3.611 -9.88399 2.46709 -2.98982 -11.0162 3.58199 -2.13975 -10.4122 4.02447 -3.53647 -13.1758 3.94353 -3.26199 

POINT_DATA 121
FIELD FieldData 1
normals 3 121 double
0.35003 0.92363 0.156162 -0.0864418 0.569934 0.817131 -0.823456 0.292651 -0.486082 0.80545 0.459376 0.374464 -0.404313 0.718927 -0.565398 0.256169 0.555101 0.791353 -0.0673838 -0.912626 -0.403204 0.876671 0.0262306 0.480374 -0.153354 0.821251 -0.549572 0.50379 0.141733 0.852119 0.496759 0.73613 0.45972 0.00180553 -0.569958 -0.821672 0.816191 -0.473374 0.331284 -0.433427 0.85451 0.286277 0.649651 -0.611825 0.451246 0.061949 0.981024 0.183725 0.782339 0.523093 0.338112 0.632911 0.765164 -0.118105 -0.699763 0.317514 -0.639935 -0.976819 -0.213988 -0.0057978 0.1946 0.465942 0.86315 -0.476024 -0.0818144 0.875618 -0.320664 0.921873 -0.217543 0.867575 0.119598 0.482711 0.0584886 -0.946157 0.318379 -0.951831 -0.254447 0.171099 0.2817 0.928139 0.243316 0.273613 -0.88912 -0.366882 -0.914 0.199724 0.353148 0.121669 0.307977 -0.943582 0.198073 0.863581 -0.463675 -0.222535 0.109903 -0.96871 0.604498 0.733679 -0.310317 -0.875413 0.186835 0.445808 -0.420608 -0.753676 -0.505036 -0.617417 0.51208 0.597135 -0.612303 0.0533735 -0.788819 -0.318317 0.914913 -0.24821 -0.577465 -0.267296 0.771419 -0.262126 0.147677 -0.953667 -0.182709 -0.980094 0.0776777 -0.19669 0.233626 -0.952225 -0.814823 -0.506781 -0.281488 -0.683959 0.606613 0.405241 -0.40046 -0.585394 -0.704943 0.653119 0.666784 -0.358936 -0.718904 0.694817 -0.0201653 -0.516969 0.806116 -0.287957 0.850313 -0.176341 -0.495855 0.942207 0.237253 -0.236554 0.450378 -0.529337 0.719 -0.906966 0.421047 -0.0114443 -0.0521905 -0.213851 0.975471 -0.332289 0.928774 0.164202 0.201978 0.251215 0.946624 -0.0981353 -0.677518 0.72893 0.51964 -0.841401 -0.148385 -0.345577 0.0648514 -0.936147 -0.920566 0.234331 0.312487 -0.300113 -0.928731 -0.217696 0.858455 0.452019 -0.242351 -0.817008 0.575829 0.0303162 -0.128096 0.877106 0.4629 -0.221613 -0.914547 0.338367 0.128454 0.878832 0.459514 0.0142716 0.194874 0.980724 0.0467026 0.258224 -0.964956 0.851248 -0.505548 0.140703 -0.864707 0.501303 0.0312597 -0.646604 -0.482567 0.590789 -0.043123 0.993996 -0.10056 -0.448106 0.31886 -0.835182 0.634908 0.549061 0.54353 -0.870617 -0.296179 -0.392816 0.689585 0.658977 0.300369 -0.279964 0.959888 0.0153677 -0.551392 -0.171177 -0.816496 -0.0588291 0.762988 0.64373 0.428504 -0.511304 0.744951 0.918708 -0.268475 0.289651 -0.514402 0.797343 -0.31565 0.130067 -0.489083 -0.862485 0.79619 0.029733 -0.604316 -0.319763 0.410406 0.854001 0.0312127 0.113281 0.993073 0.86066 -0.107489 0.497704 -0.330898 -0.861965 0.384087 0.274594 -0.0465398 -0.960433 -0.400242 -0.709971 0.579438 -0.148234 -0.121426 0.981469 0.501783 -0.854631 -0.133493 -0.801548 -0.505099 0.319993 -0.117496 0.682935 0.720967 -0.299138 0.325472 -0.896986 -0.467198 0.863952 0.18792 -0.761803 0.638892 -0.107112 0.130823 -0.581086 -0.803259 0.0558971 0.107925 0.992586 -0.855428 -0.0418574 -0.516228 -0.938068 0.00106185 0.346449 0.389746 0.918038 0.0728371 0.0799263 0.936005 -0.342792 0.345227 -0.303625 0.888048 0.615298 0.0899093 0.783151 -0.152442 0.430316 0.889713 -0.457859 -0.508307 0.729375 -0.754562 -0.320908 -0.572411 -0.305418 -0.938623 -0.160336 -0.389914 -0.456361 0.799814 0.914703 -0.088118 0.394404 0.495353 0.486946 0.719381 0.390516 -0.405986 -0.82624 -0.876302 -0.199176 0.438661 -0.421778 0.114708 -0.899414 0.0446681 -0.35897 -0.93228 0.629241 -0.561072 0.537824 0.995084 0.0707712 0.0692766 -0.416728 0.88918 0.188937 -0.715514 0.225718 0.661129 -0.111465 0.668199 -0.735585 -0.922116 -0.379097 0.0773844 