# vtk DataFile Version 4.0
Generated by libgran
ASCII
DATASET POLYDATA
POINTS 121 FLOAT
-4.03775 -7.16593 11.4399 -3.76214 -5.77152 12.5477 -4.65902 -4.92179 12.9415 -0.115073 -3.58464 11.3647 -1.41161 -3.38652 10.5316 -2.10818 -4.31565 12.9704 -1.93482 -3.55708 9.5854 -2.19388 -2.99301 6.9717 -3.24841 -2.18219 5.97958 -2.53224 -4.58655 8.32166 -0.806365 -2.23718 7.89625 -3.36351 -1.88673 4.61361 -4.10045 -1.93702 3.40686 -5.33929 -0.600763 3.32607 -2.68967 -3.05551 4.24197 -2.0956 -4.65355 4.4599 -1.33437 -3.17461 5.15329 -6.42795 -0.516967 3.66721 -6.69443 -1.61306 0.808087 -6.44808 -4.75864 12.4299 3.72919 -2.38666 7.9341 6.26298 -1.28583 7.45015 6.34028 -0.261891 6.36751 7.57839 -1.05806 6.98323 6.77585 -2.13277 6.8477 4.90415 -1.66249 8.57227 6.27558 1.58651 6.4305 8.739 -1.80654 7.00879 7.45604 2.33212 6.27905 6.63178 2.83847 5.73282 6.87381 4.03568 4.33166 6.43993 3.28466 3.83394 8.22787 3.89859 1.22607 7.89709 4.74 3.38596 6.60659 4.15777 3.37579 6.44448 5.40368 4.50587 5.52492 3.4646 2.11845 4.53819 4.43718 1.13891 1.58669 -2.0014 8.82396 1.82736 -1.55919 7.09361 -0.447985 -0.724102 12.5584 -0.599256 0.536777 11.5985 -1.31039 -2.28713 12.3122 -0.153462 0.226053 10.2115 0.112647 -0.92687 9.05659 0.334656 -0.826399 7.98752 0.251105 0.544033 7.64556 11.2905 -6.65916 4.38511 14.096 -6.85343 5.21901 10.8884 -5.50002 5.99287 10.4756 -6.2742 6.97918 9.83137 -5.45782 4.15944 10.3633 -4.09409 6.70719 8.91939 -4.98639 8.35085 9.54334 -5.63111 9.09364 9.25382 -6.57269 8.92158 7.39055 -3.91295 6.95542 7.51506 -4.67166 5.8516 8.01729 -4.82488 4.56992 9.53295 -6.29549 9.84096 10.6409 -4.88216 9.68489 15.7795 -9.54531 3.80183 14.9576 -8.01081 4.26799 14.7372 -9.79519 4.22669 14.1755 -12.0466 2.26141 14.4188 -10.917 3.64429 14.4081 -10.948 1.69759 -5.1189 -0.530465 1.00354 -0.733655 6.75572 -13.4698 -0.448816 5.81433 -12.8687 1.26928 7.87701 -15.0847 0.683658 9.10584 -16.0785 1.72711 9.48029 -14.7009 -0.614845 8.96683 -17.3203 0.846792 10.08 -16.6484 -1.81334 9.51284 -17.7354 2.83328 10.3506 -13.3612 3.22576 11.378 -11.9336 1.93726 10.7942 -11.5767 -7.35776 2.64869 -13.4232 -8.82522 3.61962 -14.1015 -6.2558 1.93128 -13.9457 -8.55991 4.42801 -15.0427 -5.66119 0.529378 -12.6655 -4.47534 2.06583 -12.7134 -3.62683 2.15999 -11.2005 -2.47934 2.97861 -11.0777 -1.88992 3.78858 -12.4326 -3.15511 1.39823 -10.0879 -6.68978 1.95111 -8.83003 -5.99322 1.20855 -9.91015 -7.6245 1.34634 -7.50754 -6.97845 2.56934 -7.15114 -5.73493 0.662094 -10.9189 -3.05209 2.59718 -6.24317 -4.75803 1.61893 -5.32584 -5.37251 1.63227 -6.24915 -5.49911 2.37507 -4.47782 -4.38819 3.37742 -6.61604 -6.17873 3.28595 -6.79692 -6.75388 4.20557 -6.41651 -5.26491 0.10342 -6.65809 -3.43375 -2.13917 -4.72836 -5.77959 5.26994 -5.59393 -5.33889 5.86178 -3.93898 -5.6181 4.9101 -4.06683 -4.76421 6.68066 -2.50236 -5.78632 5.36753 -3.19365 -0.94145 -1.91908 -3.68496 -2.23089 -2.40342 -3.3613 -4.73253 -1.50743 0.418031 -2.03311 -1.02178 -0.383448 -3.37769 -0.838299 0.802312 -8.84596 1.61703 -2.24422 -7.51353 2.8413 -2.77024 -8.05345 2.94989 -4.26706 -6.45957 2.46474 -3.58036 -9.63147 2.59473 -3.04593 -10.7393 3.80718 -2.30417 -10.095 4.12378 -3.71701 -12.8636 4.15264 -3.49499 

POINT_DATA 121
FIELD FieldData 1
normals 3 121 double
0.364139 0.898896 0.243699 -0.0885272 0.495516 0.864076 -0.808357 0.354207 -0.470209 0.780045 0.513762 0.357183 -0.516494 0.711886 -0.47587 0.253453 0.516502 0.817917 -0.00671156 -0.882447 -0.470365 0.883928 0.0229639 0.467059 -0.170605 0.833786 -0.525066 0.590709 0.147019 0.793378 0.503588 0.73287 0.457494 0.0555079 -0.538332 -0.840903 0.792448 -0.488041 0.365845 -0.446393 0.84822 0.285055 0.618334 -0.630442 0.46926 0.0242652 0.967599 0.251323 0.736965 0.511336 0.442062 0.642269 0.764424 -0.0560852 -0.658013 0.340634 -0.671556 -0.980704 -0.191058 -0.0414211 0.238938 0.450913 0.859992 -0.422819 -0.10341 0.900295 -0.345521 0.920525 -0.182344 0.892593 0.12436 0.433374 0.0900526 -0.950359 0.29784 -0.936015 -0.273258 0.221823 0.280826 0.927872 0.245336 0.268015 -0.872843 -0.407814 -0.899631 0.182263 0.396793 0.0753723 0.324096 -0.943017 0.166655 0.873111 -0.458152 -0.26722 0.122091 -0.95587 0.580162 0.746612 -0.325549 -0.856626 0.16879 0.487546 -0.433875 -0.751018 -0.497719 -0.595986 0.494891 0.632363 -0.647791 0.0578439 -0.759619 -0.338941 0.914742 -0.219921 -0.544409 -0.275484 0.792293 -0.303743 0.166731 -0.938052 -0.0844688 -0.996117 0.0248016 -0.23574 0.264762 -0.935055 -0.777937 -0.56691 -0.270974 -0.681534 0.575487 0.452024 -0.415425 -0.577435 -0.702845 0.637433 0.677906 -0.366227 -0.720985 0.692526 0.024266 -0.547385 0.792751 -0.268171 0.813532 -0.255086 -0.522587 0.919866 0.252314 -0.300308 0.506996 -0.521873 0.686006 -0.911727 0.408592 0.0424953 0.00643533 -0.221777 0.975076 -0.344822 0.921909 0.176585 0.279126 0.277193 0.919376 -0.0103914 -0.66439 0.747314 0.524643 -0.829822 -0.19012 -0.400133 0.0711196 -0.913694 -0.90236 0.224345 0.367988 -0.289518 -0.94158 -0.172065 0.818398 0.471757 -0.328132 -0.773882 0.632205 0.037722 -0.0480118 0.902295 0.428438 -0.268439 -0.882077 0.387144 0.193394 0.889803 0.413339 0.0499028 0.239772 0.969546 0.0392288 0.20885 -0.977161 0.838916 -0.514664 0.177033 -0.902458 0.430768 -0.00290344 -0.617619 -0.510624 0.598172 -0.123204 0.982157 -0.142089 -0.462421 0.246674 -0.851657 0.581035 0.621125 0.52593 -0.836082 -0.385677 -0.390153 0.625555 0.727534 0.281736 -0.362412 0.931684 -0.0249374 -0.525135 -0.249192 -0.813718 -0.13266 0.778178 0.613873 0.46336 -0.443638 0.767126 0.922894 -0.211846 0.32154 -0.544566 0.759087 -0.356701 0.179068 -0.50556 -0.844004 0.809877 0.0493085 -0.584523 -0.364149 0.416863 0.832839 -0.00234294 0.142511 0.98979 0.850856 -0.0483514 0.523169 -0.296637 -0.866979 0.400441 0.292782 -0.0570087 -0.954478 -0.379131 -0.713401 0.589337 -0.147864 -0.0880391 0.985081 0.548695 -0.830603 -0.0950372 -0.786856 -0.516736 0.337404 -0.140802 0.706262 0.693808 -0.290406 0.284147 -0.913742 -0.486074 0.861364 0.147593 -0.77508 0.615816 -0.141497 0.160606 -0.602477 -0.78181 0.0340031 0.140331 0.989521 -0.850022 -0.0811204 -0.520463 -0.940518 -0.0103519 0.339585 0.365368 0.929968 0.0408239 0.0530064 0.92637 -0.372867 0.311577 -0.261114 0.913641 0.608923 0.13441 0.781759 -0.168223 0.457429 0.873189 -0.447428 -0.494253 0.745334 -0.7429 -0.361453 -0.563429 -0.279205 -0.951682 -0.127854 -0.398143 -0.487481 0.777074 0.891293 -0.00313754 0.453417 0.452546 0.462304 0.762546 0.442281 -0.390309 -0.807494 -0.902295 -0.20683 0.378266 -0.396715 0.0634588 -0.915746 0.0594961 -0.42723 -0.902183 0.599418 -0.535823 0.594636 0.994463 0.0506678 0.0920656 -0.388798 0.914238 0.114036 -0.71905 0.298217 0.627721 -0.0747499 0.614817 -0.785119 -0.935333 -0.34319 0.0858606 