# vtk DataFile Version 4.0
Generated by libgran
ASCII
DATASET POLYDATA
POINTS 121 FLOAT
-3.41362 -6.14595 9.10649 -3.31964 -5.89531 10.8886 -3.64929 -4.80667 11.5113 0.263999 -3.60989 10.9517 -1.11644 -3.56174 10.2401 -1.61678 -5.10514 12.3945 -1.68423 -3.68573 9.31253 -2.39861 -2.96023 6.97485 -3.52428 -2.16357 6.05182 -2.22812 -4.64846 7.97421 -1.0719 -2.15942 7.94943 -3.66691 -1.76115 4.71611 -4.38393 -1.75335 3.49641 -5.70748 -0.498378 3.50714 -2.90804 -2.84239 4.25433 -2.22401 -4.41575 4.35819 -1.54275 -2.94849 5.15226 -6.80102 -0.513576 3.84259 -6.98054 -1.39714 0.904029 -4.18536 -3.16497 10.7996 3.37475 -1.93774 7.65315 5.8699 -0.77132 7.117 5.91082 0.366392 6.1524 7.1584 -0.52839 6.58695 6.31112 -1.55822 6.38938 4.58419 -1.26237 8.28031 5.91207 2.19582 6.43152 8.29042 -1.30768 6.44865 7.11556 2.9106 6.31729 6.29445 3.50267 5.8597 6.53805 4.83563 4.58729 6.05757 4.15979 4.02838 7.78116 4.98814 1.43682 7.55697 5.60058 3.68499 6.24423 5.07087 3.66083 6.17082 6.19141 4.92363 5.09383 4.55909 2.37784 4.11831 5.66895 1.54378 1.32349 -1.75257 8.74344 1.35803 -1.13546 7.05064 -0.514813 -1.1439 12.6641 -0.946692 0.192346 11.9144 -1.0705 -2.79238 12.1938 -0.555031 0.114803 10.4792 -0.23366 -0.866699 9.18802 -0.0882631 -0.642079 8.12468 -0.331306 0.741464 7.95513 10.5237 -5.9399 3.21231 13.3682 -6.27245 3.83209 10.2607 -4.91276 4.91458 9.89207 -5.77274 5.84582 9.09124 -4.68693 3.17627 9.81675 -3.57637 5.79126 8.46434 -4.59397 7.43982 9.11892 -5.32221 8.0706 8.79103 -6.23568 7.82965 6.87845 -3.35289 6.26381 6.91688 -3.99231 5.08093 7.33129 -4.03749 3.76008 9.14068 -6.05638 8.74921 10.2758 -4.6595 8.65152 14.8328 -8.90851 2.10315 14.1127 -7.38316 2.73749 13.8083 -9.14813 2.5748 13.1512 -11.254 0.481848 13.4507 -10.2222 1.92862 13.406 -10.1286 -0.0155989 -5.47912 -0.234194 1.19621 0.0659205 5.62833 -12.1239 0.244956 4.65852 -11.5272 2.26259 6.70258 -13.4927 1.82649 7.97425 -14.5092 2.73659 8.27834 -13.0239 0.663945 7.90458 -15.8844 2.07176 8.95943 -15.0286 -0.470904 8.4935 -16.406 3.7306 9.07635 -11.5574 4.00113 10.0486 -10.0644 2.67287 9.48288 -9.85437 -6.72165 2.22732 -13.0857 -7.97581 3.37967 -13.8952 -5.63662 1.4225 -13.5064 -7.50428 4.18465 -14.7552 -5.36247 -0.0970421 -12.252 -4.03465 1.30477 -12.0489 -3.39267 1.23427 -10.4362 -2.19549 1.91815 -10.1184 -1.37615 2.72979 -11.3469 -3.15362 0.376127 -9.31958 -6.61619 1.30713 -8.46528 -5.98184 0.483158 -9.52448 -7.64993 0.85588 -7.15525 -6.83255 1.9696 -6.7924 -5.65663 -0.0432032 -10.5246 -2.9892 1.364 -5.78251 -4.86627 0.668046 -4.9206 -5.42148 0.786843 -5.87343 -5.5137 1.5346 -4.10206 -4.1603 2.3571 -6.20114 -5.93796 2.55329 -6.42151 -6.3695 3.55348 -6.05466 -5.53407 -0.739361 -6.29081 -3.39439 -2.3513 -4.53927 -5.25291 4.45252 -5.21577 -4.75124 4.96659 -3.55222 -5.1714 4.06935 -3.68799 -4.07906 5.68481 -2.10411 -5.28035 4.5456 -2.81546 -1.52357 -0.665274 -3.53423 -2.13311 -1.91508 -3.27258 -5.03031 -1.14095 0.545879 -2.36283 -0.434131 -0.197056 -3.72139 -0.417556 0.986847 -9.05334 1.87313 -2.02719 -7.41103 2.61279 -2.56669 -7.83578 2.71028 -4.10092 -6.47192 1.87942 -3.2661 -9.47768 2.95567 -2.95655 -10.1873 4.51048 -2.38504 -9.44294 4.47809 -3.78374 -12.0837 5.28398 -3.72054 

POINT_DATA 121
FIELD FieldData 1
normals 3 121 double
0.480097 0.117361 0.869329 -0.386109 0.133282 0.912774 0.0564525 0.95535 -0.290033 0.688127 0.603833 0.402327 -0.692314 0.651979 -0.309233 0.111438 0.324609 0.939261 0.124524 -0.775971 -0.618355 0.879679 0.0610842 0.471629 -0.245989 0.857744 -0.451403 0.668409 0.186753 0.719967 0.44704 0.739728 0.502949 0.103364 -0.455319 -0.884308 0.820389 -0.463115 0.335388 -0.503157 0.791856 0.346117 0.655507 -0.625924 0.422527 -0.0285196 0.94744 0.318661 0.709776 0.519819 0.475401 0.590381 0.807054 0.0106699 -0.674499 0.348156 -0.651029 -0.592521 0.686352 -0.42171 0.288845 0.377571 0.879778 -0.365109 -0.193256 0.910685 -0.324185 0.944456 -0.053916 0.923391 0.0496747 0.380633 0.0761106 -0.980151 0.183061 -0.920597 -0.297797 0.252622 0.325433 0.884973 0.333041 0.20863 -0.828964 -0.518934 -0.878056 0.170193 0.447271 0.056946 0.42188 -0.904861 0.186651 0.911081 -0.367549 -0.293823 0.235238 -0.926462 0.598116 0.75617 -0.265449 -0.832275 0.14613 0.534757 -0.480474 -0.675841 -0.558913 -0.553884 0.444692 0.70389 -0.669922 0.164063 -0.724077 -0.305594 0.945788 -0.109986 -0.441719 -0.389185 0.808344 -0.407179 0.227921 -0.884453 0.110973 -0.985279 -0.130039 -0.320905 0.350969 -0.879682 -0.666661 -0.663196 -0.340197 -0.712567 0.428512 0.555541 -0.391196 -0.552991 -0.73564 0.536594 0.777611 -0.327701 -0.779636 0.605932 0.158159 -0.539699 0.823834 -0.173271 0.764716 -0.243867 -0.596438 0.905089 0.265949 -0.331791 0.536467 -0.59403 0.599442 -0.892754 0.429139 0.137222 0.0673164 -0.31703 0.946023 -0.304931 0.907539 0.288775 0.349656 0.179298 0.919561 0.0217585 -0.734173 0.678613 0.491221 -0.814526 -0.308626 -0.452787 0.175109 -0.874255 -0.867193 0.220295 0.446595 -0.327898 -0.913469 -0.24095 0.807239 0.483411 -0.338644 -0.740154 0.658505 0.136174 0.0201432 0.866848 0.498166 -0.284296 -0.898125 0.335481 0.226198 0.855869 0.465105 0.0733237 0.175949 0.981665 0.028682 0.269578 -0.962551 0.869047 -0.472556 0.146455 -0.878526 0.469884 -0.0860319 -0.69949 -0.499927 0.510672 -0.072374 0.989016 -0.128874 -0.363726 0.282649 -0.887588 0.546368 0.58674 0.597677 -0.798822 -0.352316 -0.487604 0.608997 0.702532 0.3682 -0.336027 0.941237 -0.0340303 -0.447644 -0.211274 -0.868895 -0.177116 0.761007 0.624098 0.3774 -0.478156 0.793055 0.845435 -0.325323 0.423561 -0.408731 0.827033 -0.385949 0.239595 -0.479495 -0.844203 0.880266 -0.022052 -0.473969 -0.429879 0.411639 0.80359 -0.121737 0.0930144 0.988195 0.763717 -0.163519 0.624498 -0.43346 -0.847398 0.306642 0.385875 -0.0357595 -0.921858 -0.524672 -0.694624 0.492156 -0.173428 -0.0601887 0.983006 0.460925 -0.884162 -0.0761979 -0.860305 -0.391062 0.327026 -0.0429259 0.72266 0.68987 -0.135714 0.3578 -0.923883 -0.330952 0.935896 0.120706 -0.653256 0.7371 -0.173032 0.0980518 -0.618302 -0.7798 0.00583099 0.129452 0.991569 -0.840143 0.057208 -0.539339 -0.937518 0.138976 0.318976 0.505971 0.861221 0.0478716 0.210644 0.907901 -0.362415 0.524835 -0.0936081 0.846042 0.610621 0.0378137 0.791019 -0.10895 0.476255 0.872531 -0.529109 -0.420982 0.736762 -0.781127 -0.241968 -0.57558 -0.42016 -0.897236 -0.135767 0.126894 -0.719984 0.682291 0.736442 0.529825 0.420642 0.420234 0.434201 0.796789 0.469876 -0.30577 -0.828083 -0.888683 -0.289194 0.355821 -0.325982 0.0874585 -0.941322 -0.0249486 -0.517997 -0.855018 0.399803 -0.615491 0.679212 0.964055 -0.215372 0.155605 -0.0983578 0.995079 0.011963 -0.611234 0.559731 0.559549 0.133104 0.527345 -0.83916 -0.994867 -0.0801137 0.0618192 