# vtk DataFile Version 4.0
Generated by libgran
ASCII
DATASET POLYDATA
POINTS 1686 FLOAT
-32.9482 2.21178 6.50931 -31.556 1.36383 7.5406 -33.8218 2.37045 4.96133 -32.6119 3.23417 5.95705 -33.8141 -0.95471 7.81009 -34.427 2.97652 3.98513 -30.8471 0.170142 12.1965 -30.5268 -1.51514 12.6139 -31.5303 0.831695 11.2671 -31.6425 -0.224056 9.82679 -31.2202 1.45941 9.87693 -30.7298 1.64391 8.6752 -29.8083 -3.18343 15.0387 -29.081 -2.73232 14.0211 -29.2113 -1.59502 14.0864 -28.7085 0.0352113 13.6819 -28.0522 0.323566 14.3792 -28.1784 0.957726 13.0085 -31.5292 -3.91925 13.1548 -33.3332 -4.81473 14.7108 -32.3715 -4.16205 14.0648 -32.3844 -4.59934 15.7581 -34.1709 -5.31446 13.8001 -31.6183 -4.9249 16.6387 -31.9638 -3.65023 17.2651 -32.2564 -3.26807 18.3712 -30.965 -3.14614 18.6297 -30.4223 -4.62078 21.3048 -31.6061 -3.86341 21.9478 -30.8604 -3.76255 20.2551 -30.1544 -5.8078 21.8408 -30.9912 -7.40244 21.6502 -31.3402 -3.79841 23.6092 -30.1038 -4.12219 18.9237 -30.3395 -8.11946 19.6925 -30.9415 -9.40913 19.5742 -29.0294 -8.317 19.5794 -27.9253 -8.26606 19.4907 -27.6235 -6.86702 20.5986 -28.3889 -6.24145 22.0361 -27.516 -5.39427 20.5785 -30.045 -10.3138 20.6488 -21.6665 -12.4517 23.2336 -22.5995 -12.0679 22.3676 -23.8965 -12.9577 22.4255 -21.2002 -11.4927 24.9143 -22.5699 -11.3819 25.3759 -25.3507 -13.8179 22.6796 -27.1883 -11.6853 19.7924 -26.185 -11.2917 18.8923 -26.7288 -12.7438 20.4531 -28.2277 -12.3976 20.8045 -25.986 -13.6208 21.5848 -29.0811 -11.2744 21.4594 -25.3021 -12.7124 18.0933 -25.3308 -14.1126 17.1338 -24.5331 -16.2015 18.0815 -24.2366 -16.2616 16.7864 -25.3896 -15.4041 16.7891 -23.1735 -15.5401 18.9193 -22.4137 -15.9634 16.3168 -21.5965 -15.3774 19.3311 -21.6285 -16.3834 19.8512 -21.7291 -14.9802 12.3178 -22.7911 -15.4 12.1619 -22.947 -13.7753 12.5606 -20.4558 -15.0401 12.6962 -20.4437 -16.0589 11.3908 -20.2697 -14.4673 14.4607 -21.0017 -14.8965 15.8498 -36.6068 16.3123 3.58112 -37.2351 15.7846 1.77439 -37.2445 14.7959 1.62487 -35.3973 16.8167 4.49075 -34.6658 16.6714 5.29566 -33.728 16.9564 5.09789 -33.9326 16.4618 5.94253 -40.4593 15.3419 1.8695 -41.391 16.0756 1.26984 -39.5175 16.631 1.20835 -39.6268 14.9621 2.50076 -40.7057 13.5846 2.15012 -41.4295 12.5836 2.69736 -42.0734 11.5271 3.52671 -46.3692 12.2246 3.70948 -46.7332 11.2686 3.13392 -47.1519 13.5185 2.94013 -45.5308 13.7808 4.64212 -43.0267 11.0482 3.61459 -42.2639 9.95568 2.70564 -42.8338 10.1758 1.52857 -42.6663 9.19764 0.961553 -42.32 8.47877 2.32772 -42.9042 11.6123 0.514098 -44.2686 10.6802 1.23963 -43.2312 11.9513 -0.739575 -42.5218 7.02512 1.96265 -42.5548 7.07265 3.58216 -44.9597 8.34258 -4.95839 -44.3211 8.02189 -6.07965 -45.2958 6.5995 -5.58598 -45.7495 9.84278 -6.54308 -46.5833 9.2837 -6.91152 -46.5263 10.1226 -5.20978 -47.8487 8.9082 -7.35222 -47.3601 9.56353 -5.57822 -46.2352 5.13342 -5.10481 -45.7833 10.4972 -3.20507 -46.6779 10.4663 -4.20263 -45.6761 10.521 -1.98282 -45.8459 10.3863 -0.879444 -46.4516 10.1021 0.0193418 -45.4915 9.95026 0.457759 -47.5126 11.4747 -0.0606503 -45.5806 11.2889 1.55885 -44.2813 4.49714 -7.98924 -43.3214 4.59266 -9.40124 -43.5244 3.46228 -7.80446 -44.4651 5.75326 -7.59362 -44.8696 6.9787 -7.96633 -46.466 6.93628 -7.5524 -43.8615 1.93814 -7.14692 -47.6395 6.50104 -7.84211 -45.9278 1.7165 -3.85896 -45.3054 2.89176 -4.11216 -46.4813 3.56734 -4.3206 -44.1525 3.99949 -4.57962 -25.1036 13.6844 19.9148 -25.6555 14.4655 20.8385 -24.2584 14.9901 20.2566 -26.3757 12.7388 18.9314 -28.0801 12.7082 20.4611 -28.4708 10.3285 18.355 -29.0303 12.0086 17.7521 -28.9757 9.18022 18.0952 -28.2291 8.44546 18.3762 -28.3786 12.1731 17.0117 -30.4619 8.4324 18.5158 -29.8524 9.30869 16.9221 -30.5966 7.83997 20.0898 -26.0402 4.96855 12.6533 -25.8082 3.88383 12.4034 -26.3985 6.05009 13.3388 -27.9118 5.29935 13.1609 -27.2063 3.01033 13.1087 -26.9618 2.78535 11.6436 -27.5396 2.25482 14.4422 -26.6085 2.05661 10.4618 -26.2787 2.2799 9.4643 -28.9734 9.20074 15.6863 -30.2411 9.13675 15.2903 -27.8748 9.55079 14.898 -30.3136 7.77783 14.1378 -31.4912 9.13295 14.332 -30.8081 6.53845 13.9345 -29.4122 6.12894 13.5363 -33.7037 7.32984 5.55349 -34.8909 6.88901 5.14841 -33.0405 8.18882 6.02363 -32.614 6.56228 6.61785 -36.4871 6.45896 6.1537 -34.4335 4.80946 6.90287 -37.6746 7.08067 5.93399 -37.8028 7.07092 4.42466 -40.9698 6.08126 5.33202 -39.4609 5.49018 5.09449 -42.1894 6.58469 5.17677 -42.9184 5.9677 3.60748 -38.5407 6.79467 3.74639 -38.68 4.77264 6.22479 -32.1555 6.36416 11.7855 -31.7304 8.83527 11.1478 -32.8508 8.89006 12.4922 -32.9091 9.06518 13.584 -33.5913 7.94273 13.9442 -31.9827 10.6087 13.8957 -33.878 6.5347 14.4169 -34.4881 3.99509 9.46211 -33.8774 3.81813 10.6299 -33.8174 4.27106 7.61294 -33.1005 4.03815 11.7701 -25.6731 23.0463 29.0788 -26.0747 21.7862 29.6418 -25.6895 22.6593 30.6698 -25.4165 23.1641 27.7795 -25.8348 24.649 28.3301 -26.6169 25.8198 28.3471 -22.876 23.3123 29.0072 -22.5721 23.6576 31.307 -23.4373 24.3111 32.4455 -22.2846 23.3748 30.0399 -21.8333 23.0268 29.0868 -23.6577 25.1597 29.4826 -23.4211 24.5054 33.6672 -25.4724 27.4373 33.7001 -25.1511 28.4434 34.5109 -26.1742 29.253 33.7328 -25.7855 26.7522 32.8866 -24.8144 26.0606 32.6563 -23.6084 29.0683 35.5561 -25.5168 25.1484 32.023 -20.9279 26.0054 36.1329 -21.0137 24.7404 36.5337 -20.828 27.0888 35.9597 -19.87 27.8556 36.7356 -20.886 28.591 36.1218 -18.3825 27.6766 37.6087 -18.5072 28.8386 37.0263 -21.879 29.4802 35.7761 -19.9256 29.5982 35.4974 -27.7739 23.6487 33.8356 -28.2953 25.8955 34.1178 -30.3601 24.8547 36.2237 -30.209 23.6992 35.4086 -29.7792 22.9776 33.7019 -26.4624 23.4204 33.7479 -31.4559 20.6354 31.8541 -32.0825 21.5273 33.2737 -30.1891 20.4243 31.505 -29.3206 20.1145 31.1182 -32.2224 22.6109 34.4962 -33.1068 22.166 34.3558 -34.8948 22.6081 34.1367 -35.633 22.453 32.8365 -35.2169 21.5697 32.4076 -36.6352 23.782 31.9652 -37.1333 23.6573 33.6081 -37.5884 24.3027 32.5757 -36.3007 21.7355 34.2122 -37.2135 24.7316 35.1495 -37.382 25.6633 33.2027 -41.1526 25.3387 36.4331 -40.5905 26.4189 35.8991 -39.6261 25.6324 35.4617 -38.2248 25.6004 35.1891 -41.0912 25.5401 34.2419 -37.1058 25.8067 34.8232 -33.8981 7.01573 23.5706 -33.6923 5.8423 24.1601 -35.2054 6.79719 24.5713 -32.7226 7.24961 22.4378 -33.9839 8.33122 22.9315 -31.3113 6.33507 21.6315 -30.4211 5.93984 20.5541 -30.9826 5.26569 19.8194 -29.4277 5.80263 19.5014 -31.5359 4.29281 19.1015 -31.1789 3.60399 20.3097 -27.5473 4.6427 18.2986 -27.3787 5.74216 18.0854 -38.6839 7.04683 24.3647 -38.9086 6.09334 25.2638 -40.376 5.59579 24.7704 -39.056 8.3675 24.9604 -40.4206 7.97949 24.5723 -37.2253 5.23186 21.8639 -37.4253 6.61882 22.8711 -36.3957 4.83716 22.5103 -35.5908 4.4427 22.9538 -34.2251 5.20445 21.9493 -34.5253 3.87558 23.1033 -29.5613 15.5283 23.4091 -30.5956 15.4497 24.241 -29.276 15.2226 25.2605 -28.5449 15.2035 22.5719 -29.5132 14.7881 21.6646 -31.614 16.163 24.569 -31.1653 17.2069 25.9125 -30.1002 17.9632 27.3425 -32.1897 9.65671 21.2758 -31.0455 9.58147 21.9041 -30.7216 10.7671 21.0126 -33.3195 10.3471 21.3995 -33.9054 9.18526 22.129 -29.4852 11.1483 21.5964 -29.5597 12.1455 21.6047 -29.0054 19.3684 27.6971 -29.0054 17.794 27.5175 -29.8055 19.59 29.8691 -31.197 19.5375 28.7804 -28.6427 16.2939 27.7584 -27.8819 15.2634 28.6713 -30.9197 19.6665 26.4125 -31.8846 19.0996 27.4756 -30.8075 20.9913 26.4328 -32.316 21.6865 25.9675 -33.9348 21.5206 25.9966 -33.7898 22.702 24.183 -6.43127 25.0491 41.3671 -5.47543 24.9273 41.6345 -7.71941 24.7188 41.2819 -5.94669 24.2094 41.1221 -8.52232 26.027 42.0992 -9.38003 24.5935 41.5507 -9.34175 25.6941 41.6326 -9.32777 26.6147 42.0227 -5.36947 23.1777 41.5593 -4.15957 23.6685 41.0243 -5.14952 21.4747 41.8419 -10.1838 23.6574 40.4871 -6.86748 20.0167 43.1365 -6.6763 20.8092 41.8327 -7.92598 19.0622 43.3743 -8.57479 18.2054 43.6922 -4.82216 20.8706 42.8984 -1.53801 24.7859 42.2614 -2.48165 24.9505 41.3392 -2.85848 23.7701 41.3719 -0.201498 26.0966 42.1237 -2.13363 26.4901 40.7711 -3.12008 22.5381 41.3302 -2.04364 28.3005 40.8457 0.938645 30.283 41.3965 1.40477 29.0947 42.4318 -1.76871 29.8673 40.2915 2.4476 28.4215 41.9118 -2.88296 29.5652 41.549 -21.3378 33.3903 42.6463 -20.0638 33.0277 42.5296 -21.5668 33.7169 44.3012 -22.5584 32.7647 42.9613 -19.0275 32.3643 45.2624 -19.6099 32.9736 46.6731 -18.2894 31.5242 43.9383 -15.8106 30.2427 42.4484 -16.7119 30.2916 43.4246 -14.973 28.8234 42.5966 -17.7852 30.2718 43.5121 -17.8277 29.2929 44.6432 -16.9053 28.6738 44.2494 -13.8839 28.8646 43.5129 -14.7814 28.5319 44.134 -17.8761 28.7251 46.1303 -12.1516 25.4334 45.0083 -13.405 25.8628 45.1432 -11.8669 25.7455 44.1019 -11.1799 25.4742 44.7759 -13.7552 26.9964 45.992 -14.3507 26.1308 46.8707 -14.276 28.4306 45.5354 -11.0015 26.767 43.7059 -15.8124 28.3334 44.8105 -10.3886 28.3949 41.326 -9.86024 27.1726 41.2038 -11.1559 28.2371 42.6714 -11.2249 29.2347 42.6616 -11.9507 28.5289 41.1655 -11.1768 28.7454 43.5324 -20.3976 36.2198 39.5168 -20.3582 36.762 37.69 -19.6746 36.9803 40.3342 -19.817 38.5208 39.8809 -19.5597 38.4556 40.845 -20.2138 39.1512 40.548 -20.3574 40.1714 39.8579 -19.9941 36.2275 36.7865 -21.0529 37.545 36.8525 -19.3115 39.8377 41.3752 -21.1638 42.7808 43.3177 -22.7163 42.044 42.6708 -23.0872 42.7522 43.5188 -22.6715 41.0011 41.4785 -24.1318 41.0099 42.5315 -21.152 40.8684 40.4611 -19.455 40.858 40.6851 -23.638 44.8242 44.3392 -22.5858 45.3601 42.9655 -23.0716 44.8175 45.5422 -23.9373 43.5599 44.5169 -22.434 45.227 41.7153 -21.5275 46.359 42.4103 -22.7818 42.7766 47.2456 -23.6602 42.3572 50.4656 -23.2765 43.4562 49.8231 -24.5647 44.0585 50.2472 -22.2146 43.1943 48.7146 -20.9472 44.4126 48.3754 -25.6328 44.4458 49.8551 -16.7999 29.227 40.0087 -16.007 28.7423 39.0579 -16.1849 30.0399 38.5613 -15.7796 27.2373 39.4253 -17.2209 30.0828 37.4605 -14.9106 27.0078 40.8183 -13.4529 27.8539 40.9789 -18.5421 29.7595 36.3577 -18.7439 30.6447 34.9751 -18.0245 29.9602 35.0927 -17.8239 30.8211 34.6252 -19.156 32.0041 36.4218 -18.8296 31.6741 37.5736 -21.7932 30.6237 37.6363 -22.2093 31.5491 36.3198 -22.6635 34.9499 41.294 -24.1902 34.1067 41.3861 -21.8594 34.0465 40.7413 -22.0837 33.6769 39.5352 -
[...]
POINT_DATA 1686
FIELD FieldData 1
normals 3 1686 double
-0.515068 0.51505 -0.685148 0.877132 -0.3329 0.346146 -0.358494 -0.356378 -0.86283 0.851439 0.507337 0.132893 -0.85364 -0.478492 -0.205776 -0.246683 0.962442 -0.113367 -0.553728 0.831336 0.0476003 -0.233481 -0.853942 0.465048 -0.129494 -0.169783 -0.976937 0.017228 -0.885969 -0.463424 0.439552 0.797494 -0.413277 0.0508811 -0.612985 -0.788454 -0.190031 -0.927574 0.321706 0.537299 -0.476463 -0.695911 0.407026 0.660838 -0.630574 0.0957543 0.969389 0.226088 -0.560483 0.681034 -0.471223 0.434315 -0.0468743 -0.899541 -0.876961 0.443978 0.183909 -0.996209 0.0340918 -0.0800376 -0.0345992 0.686774 -0.726047 -0.0474534 0.24948 0.967217 0.158421 -0.533818 -0.830627 0.813537 -0.57504 -0.0865227 0.468042 0.699631 0.539865 -0.760648 -0.317465 0.566242 0.530764 -0.195533 0.824655 0.86417 -0.437356 0.248858 -0.319604 0.320014 0.891877 0.426111 0.420878 -0.800807 -0.596298 -0.749662 0.287115 -0.240485 -0.84498 -0.477677 0.585487 -0.255011 0.769529 0.33044 -0.780526 -0.53065 0.77582 0.382584 0.501729 0.173817 -0.907084 0.383387 0.534197 -0.58013 -0.614884 0.569935 0.631074 0.526232 -0.268143 0.767967 0.581658 -0.497279 -0.142393 0.855826 0.375707 0.704785 -0.601765 0.722657 0.00242778 0.691203 -0.31105 0.907095 -0.283597 -0.622019 -0.523294 -0.582457 -0.674997 -0.366505 0.640354 0.823717 0.566095 0.032051 -0.546015 0.67687 0.493675 -0.779166 -0.493697 -0.386217 -0.427279 -0.872329 0.237642 0.576074 -0.478779 -0.662502 0.886763 -0.186193 0.423065 -0.612122 0.160033 0.7744 -0.143907 -0.690788 0.708593 -0.241253 0.963084 -0.119438 0.30678 -0.94195 -0.136441 -0.335484 -0.458166 -0.823125 0.579825 0.0359912 0.813946 0.876349 -0.0240759 -0.481075 -0.276661 0.833406 -0.478427 0.779864 0.625492 0.0239162 0.946569 0.322298 0.0114391 0.797099 -0.462791 0.387889 0.829125 0.543205 -0.132211 0.82062 -0.317191 -0.475365 -0.241412 -0.736986 -0.631326 -0.397257 0.887734 -0.232628 0.452663 0.257305 0.853751 0.464762 -0.761555 -0.451697 -0.266532 0.315478 0.910733 -0.465451 -0.744635 0.478407 0.27327 0.155061 0.949357 -0.355025 -0.372654 -0.857372 -0.345594 0.616042 -0.707854 0.936152 0.349344 -0.0397316 -0.204659 -0.494657 0.844647 0.733228 -0.209606 0.646871 0.937886 0.285051 -0.197778 -0.0643541 -0.817986 0.571627 -0.996053 -0.08421 -0.0280405 0.877491 0.471163 -0.0895223 0.896881 0.438233 0.0596279 -0.182037 -0.939241 -0.291013 -0.541763 -0.0617809 0.838258 -0.102117 -0.994733 -0.00890929 -0.503194 0.859778 0.0870497 -0.867231 -0.0962647 -0.488512 -0.279491 0.434123 -0.8564 -0.472433 0.881042 0.0239145 0.851224 -0.5158 -0.0967868 0.0883782 0.576695 0.812165 -0.481526 0.796858 -0.364899 -0.314067 -0.181346 -0.93192 0.0322962 -0.900214 0.434248 0.411102 0.639566 -0.649578 -0.95325 -0.292479 0.075958 -0.738057 -0.300566 -0.604096 -0.234106 -0.553434 -0.799316 -0.267097 -0.505905 0.820195 -0.135775 0.877424 0.460101 0.502911 0.556735 -0.661156 -0.471795 -0.865654 -0.167489 -0.0921413 0.682078 0.725451 -0.92597 0.122995 0.357005 -0.684633 -0.402243 0.607848 -0.339373 -0.498495 -0.797702 0.149198 0.156839 0.97629 -0.467685 -0.600427 0.648658 0.361632 -0.715067 0.598249 -0.533008 -0.745961 -0.399305 -0.25448 0.738821 0.624006 0.0847051 -0.873516 0.47937 -0.690457 0.589372 0.419416 0.269684 0.437484 0.857833 -0.370464 0.783165 -0.499409 -0.358809 0.901156 0.243255 -0.686324 0.415344 0.597033 0.273574 0.510868 -0.814967 0.0705731 -0.619514 0.781807 0.502516 0.840779 -0.201417 -0.907027 0.38466 -0.171288 -0.6893 -0.427075 0.585212 -0.407697 -0.904623 -0.124258 -0.484206 -0.00816789 -0.874916 -0.331849 0.885177 -0.326095 0.954221 0.290086 0.0728864 -0.221641 0.965661 -0.135551 0.198731 0.81764 -0.540343 -0.397834 -0.514809 -0.759408 -0.949787 0.266287 0.164305 0.447383 0.790875 -0.417571 -0.874235 -0.430751 -0.22398 -0.785044 -0.147218 -0.601691 0.431947 -0.901821 -0.0118658 -0.127646 0.77829 -0.614793 -0.936917 -0.24641 -0.247928 -0.190282 -0.981172 0.03307 -0.779436 0.613763 0.125596 -0.549236 -0.501411 0.668526 0.0602773 0.374876 -0.925113 0.414493 -0.0910188 0.90549 -0.896014 0.337992 0.287959 -0.664037 -0.746728 0.0380994 0.537679 0.743546 0.397543 -0.975537 -0.00719888 0.219716 -0.734053 -0.126775 0.667154 -0.489551 -0.351756 -0.797877 0.400752 -0.628733 0.666402 0.842887 -0.376982 -0.383961 -0.51307 0.600271 -0.613542 0.818733 -0.482825 -0.310737 -0.448982 -0.546816 -0.706688 0.27978 0.832871 -0.477544 0.376445 -0.812098 -0.445855 -0.801137 0.543021 -0.25161 -0.870962 -0.427284 0.242599 0.524931 -0.836793 -0.155641 0.447043 -0.020455 0.894279 -0.740207 -0.461279 0.489198 0.216088 0.879439 -0.424137 0.642577 -0.747105 0.170084 -0.855964 0.0312241 0.516091 0.936859 -0.285055 -0.20258 -0.331541 0.590493 -0.735798 0.203358 -0.60025 -0.773528 -0.587211 0.521363 0.619164 0.921683 -0.0697209 0.381627 -0.632424 -0.0179389 -0.774415 -0.0965495 -0.599041 -0.794876 0.941249 -0.324001 -0.0952523 -0.140782 -0.647816 0.748676 0.430416 -0.775627 0.461677 -0.445247 0.490474 0.749126 -0.675139 -0.435682 0.595289 0.616803 0.610797 0.496469 -0.0653197 -0.511649 0.856708 0.309628 0.932735 -0.18476 -0.221397 -0.896386 -0.384026 0.349926 0.0226133 -0.936504 0.960559 -0.154353 0.231303 0.320729 0.253351 -0.912659 -0.183629 0.374379 0.908912 -0.358435 0.623767 -0.694579 -0.760098 -0.636328 -0.131669 -0.37487 0.236742 0.89634 0.61503 -0.505933 -0.604789 0.196737 0.978961 -0.054133 -0.978842 0.19185 0.0711435 0.723448 0.649524 0.233971 0.155381 -0.869799 -0.468301 -0.70987 -0.216378 0.670272 0.132079 0.586971 -0.798762 0.31923 -0.93502 -0.154367 -0.297613 -0.530719 -0.793576 0.726101 0.410718 0.551441 0.464329 -0.860533 -0.209479 0.785619 0.145558 0.601345 -0.237481 0.955185 -0.176704 -0.777465 0.175496 -0.603945 0.19362 -0.516175 -0.834311 0.757077 0.479416 0.443841 -0.895963 -0.396039 0.201004 0.137145 0.402865 -0.904926 0.0513364 -0.862118 -0.5041 -0.0372912 0.680562 0.731741 0.995295 0.0862568 0.0441395 -0.0207061 0.821657 -0.569606 0.492263 -0.265251 0.829047 0.367579 0.896715 0.246552 -0.972281 0.0675407 0.223847 0.981106 0.185545 -0.0548134 0.544493 -0.516053 -0.661224 0.859935 -0.158143 -0.485286 0.15168 -0.973991 0.168332 -0.000540205 -0.18152 -0.983387 0.430338 -0.540052 -0.723293 0.767009 0.287696 0.573523 0.447695 -0.777032 -0.442482 -0.178887 0.114951 0.977131 0.819118 0.565961 0.0934541 0.0494239 -0.875721 -0.480282 0.0390328 0.968628 0.245432 -0.845432 0.523661 0.104993 -0.942515 -0.0815385 -0.324062 -0.204277 0.0735462 0.976146 0.211854 -0.809706 0.547261 -0.596743 -0.410245 0.689636 0.0987004 0.285562 0.953264 -0.356409 0.930968 -0.0791868 -0.463369 -0.791008 0.399495 -0.178936 0.788766 0.588073 0.562759 0.4296 0.70622 -0.957606 -0.245648 0.150491 -0.395478 0.834541 -0.383586 0.568928 0.048057 -0.820982 0.832368 -0.0800406 0.548414 -0.363618 -0.795597 0.484569 0.286586 0.286244 -0.914294 0.632032 0.658432 -0.40866 0.837915 -0.51499 0.180784 -0.675259 0.439898 0.592044 0.543462 -0.424546 -0.724161 -0.717761 0.657065 -0.230403 0.867844 -0.489997 -0.0821615 0.0223727 0.0947684 -0.995248 -0.583823 -0.768923 0.260591 0.971024 -0.231981 -0.0574267 0.0305218 -0.203954 -0.978505 0.387536 -0.892774 0.229716 -0.42961 0.503883 -0.749358 0.598172 0.595577 0.53617 0.422085 -0.190924 0.886223 -0.646772 -0.762575 0.0128517 -0.820645 0.265025 -0.506264 -0.822747 -0.345486 0.451361 -0.541856 -0.0425196 -0.839395 0.936121 0.351516 -0.0106882 0.406074 -0.230903 0.884187 -0.106522 -0.746222 0.657119 0.911387 0.351771 -0.213613 0.454311 0.409971 -0.790901 0.154157 -0.918895 0.363135 0.0602473 -0.0781986 -0.995116 -0.974067 -0.156749 -0.163169 0.345482 -0.383921 0.856298 0.95617 -0.246588 0.157902 -0.0121819 -0.662013 -0.749393 -0.0443356 0.869978 0.491093 0.493009 0.173955 0.852456 0.572119 0.582336 0.577551 -0.919563 -0.274476 0.281189 0.224617 -0.349718 0.90953 0.548551 0.835923 0.0180209 -0.210278 0.96488 -0.157447 -0.796183 -0.196974 0.572096 0.687852 -0.454729 0.565757 0.61336 0.542458 0.574046 0.522641 0.822875 -0.222984 0.522689 -0.751504 -0.40254 0.534368 -0.351216 0.768829 -0.857132 -0.403737 -0.319878 -0.160003 -0.748645 0.643374 0.920804 -0.281867 0.269577 0.795295 0.601158 -0.0781968 -0.169564 0.0342145 0.984925 -0.683105 0.723645 0.0985124 -0.825401 -0.0284303 -0.563831 -0.793381 -0.137437 0.593007 -0.428945 -0.786331 -0.444623 -0.471254 -0.717902 -0.512383 0.484587 -0.839748 -0.244948 -0.816887 0.387555 0.427196 0.955841 -0.121846 0.267435 0.0139778 0.920655 0.390126 -0.843726 -0.512877 -0.158381 -0.805446 0.587717 -0.0764538 -0.819424 -0.332938 -0.46658 -0.378621 -0.909847 0.169779 0.831276 -0.418994 -0.365273 0.598566 -0.793099 0.112747 0.0399076 -0.423169 -0.905171 -0.0622735 -0.944051 0.323867 0.128907 -0.151612 -0.979998 -0.996226 -0.0105389 -0.0861522 0.347409 -0.846179 0.404089 -0.271211 0.18894 0.943794 0.850663 0.495168 0.176582 -0.0929766 0.6598 -0.745667 -0.469809 -0.52059 -0.712927 0.485852 0.815562 -0.314335 0.441001 0.87976 0.177595 0.208215 -0.711418 0.671216 -0.351008 0.930692 -0.102983 -0.173592 0.235401 -0.95627 0.29253 -0.952989 0.0789826 -0.62593 -0.636094 0.451216 0.750305 0.279808 -0.598957 -0.488314 0.333932 0.80625 -0.616986 0.0171284 0.786788 0.656963 -0.345478 0.670108 0.388017 0.309446 0.868151 -0.603628 -0.642731 -0.471731 0.820173 -0.289479 -0.493476 0.237743 0.31988 0.917145 -0.0821414 -0.550608 -0.830713 0.414385 -0.77057 -0.484259 -0.486947 -0.72167 0.492011 0.423157 -0.648728 0.632526 -0.586353 0.701804 -0.40455 -0.628829 -0.277013 0.726525 0.293565 -0.896155 0.332754 0.665936 0.689937 0.283754 -0.231555 0.357227 0.90486 0.580399 -0.290801 0.760639 0.687085 -0.271241 0.674049 -0.566283 0.15812 0.808901 0.971773 0.0408022 -0.232362 0.284688 0.312043 -0.906412 0.21612 0.975548 0.0399745 -0.379444 0.109945 0.918659 -0.736972 0.458578 -0.496567 -0.106277 0.980774 -0.163669 -0.799368 -0.555753 -0.228361 -0.815355 0.331565 0.474617 -0.286958 -0.89078 0.352373 0.0481297 -0.489328 0.870771 -0.0209326 0.508237 0.860963 -0.746691 -0.197532 -0.635164 -0.0690623 0.997564 -0.00980713 0.211373 -0.0843656 0.973758 0.250772 0.457803 -0.852954 0.511657 0.844848 -0.156331 -0.654116 0.695657 -0.296974 -0.396833 0.630416 0.667157 0.257282 -0.0652397 0.964132 0.113727 0.954973 0.27403 0.113289 -0.992274 -0.0505802 -0.945503 0.325249 0.0154214 0.645072 0.751753 -0.136931 0.986103 0.0847838 0.142876 -0.566416 -0.651997 -0.504056 -0.93729 0.0562449 0.343983 0.611218 -0.390852 -0.68822 -0.849084 -0.382115 0.364753 0.908322 0.258061 -0.329175 0.788627 -0.268458 0.553171 -0.212065 -0.512951 0.831811 0.840155 0.022991 -0.541859 0.778419 0.506253 0.371176 -0.0872171 -0.751388 -0.654071 -0.688401 -0.1561 -0.708334 0.218101 0.975835 -0.0133169 0.72944 -0.155788 0.666068 0.516033 -0.78749 0.337001 0.899766 0.311588 -0.305507 -0.388401 0.913832 0.118558 0.16217 -0.573511 -0.802986 -0.464233 0.0555455 -0.883969 -0.679713 -0.526516 -0.510658 0.732201 0.422377 -0.534303 0.0607366 -0.907078 -0.416558 -0.117203 0.390432 -0.913141 0.166713 -0.597999 0.783967 -0.918714 -0.347487 -0.187663 0.702237 0.368564 0.609117 0.7555 0.477499 -0.44857 -0.402474 0.0242292 -0.915111 0.200608 0.860943 -0.467477 0.920022 0.17638 -0.349928 0.719414 -0.684563 0.117549 0.805982 0.280338 0.521349 -0.479614 -0.610341 0.630439 -0.726491 0.508659 -0.462035 0.310338 0.416705 -0.854428 0.982697 0.00929908 -0.184986 -0.544077 -0.833869 -0.0929624 -0.178594 -0.91263 -0.36771 -0.0457042 0.543036 -0.838464 -0.363526 -0.852933 0.374638 -0.968178 -0.249241 -0.0225733 -0.800473 0.527585 -0.284423 -0.261611 -0.480111 -0.837289 -0.0829346 -0.784486 0.614576 -0.521405 -0.0329782 0.852672 0.343509 -0.924438 0.165576 0.682651 0.00696754 -0.730712 0.05074 -0.763222 -0.644141 -0.631911 -0.770191 0.0865703 -0.536942 0.843277 -0.0240148 -0.635016 -0.260069 0.727406 0.106025 0.988934 0.103775 0.657509 0.297066 0.692411 0.266138 -0.622119 0.7363 -0.391371 -0.919186 0.0438895 0.141882 -0.973693 -0.178303 0.943706 0.236174 -0.231607 0.954396 -0.270182 0.127 0.354476 0.914715 0.19402 0.054016 -0.0584695 0.996827 0.817765 0.128124 -0.56111 0.554457 -0.28507 0.781864 0.19317 0.237735 -0.951928 -0.599058 0.234256 0.765672 0.579069 0.654965 0.485488 -0.215936 -0.429002 0.877114 -0.935411 0.346607 0.0697856 0.982511 0.0117362 -0.185833 0.0389685 0.663968 0.746745 0.0562175 0.97764 -0.202629 -0.334222 -0.928914 -0.15942 0.017249 0.313674 -0.949374 -0.10147 0.00313701 0.994834 -0.12089 -0.329597 -0.93635 -0.93126 -0.35228 -0.0930273 -0.0368453 0.0318338 -0.998814 -0.45446 0.886542 -0.0866573 -0.0658975 0.606974 0.791985 0.937182 -0.313387 -0.153224 0.291059 -0.285197 0.913207 -0.238035 0.605873 -0.759116 -0.878374 -0.426187 -0.216388 0.893234 0.0913008 -0.440225 0.118442 0.0607298 0.991102 -0.151471 0.887139 0.435936 0.229264 -0.107413 0.967419 0.179376 -0.687137 0.704036 0.634422 -0.0304051 -0.772389 -0.294943 0.648258 -0.701976 -0.768577 -0.540825 -0.341758 0.974452 0.110787 0.19537 0.186413 -0.233131 -0.954411 -0.242808 -0.187809 0.951721 0.292332 -0.0489567 0.955063 0.399101 -0.237602 -0.885587 0.237584 -0.966511 -0.0970069 0.856013 0.216676 -0.469354 0.50961 0.710445 0.485351 0.763876 -0.195171 -0.615143 0.834777 0.548328 0.0498246 0.0709012 0.743499 0.664967 0.742173 -0.520468 -0.422247 -0.935651 -0.283018 0.210849 0.102833 -0.986261 0.129285 -0.147993 0.173323 -0.973682 -0.959983 0.271492 -0.0687367 -0.767553 -0.59433 -0.240071 0.303746 0.418197 0.856067 0.0475776 -0.978348 0.201426 0.854102 0.394935 0.338433 -0.273031 0.945134 -0.179375 0.827723 0.359978 0.430454 0.444805 -0.692678 -0.567756 0.742748 0.656312 0.132589 0.536307 -0.268823 0.800068 0.594028 -0.153377 0.789687 -0.4637 -0.885021 0.0414714 0.0622279 -0.102261 -0.992809 -0.75392 0.423238 0.502469 0.0245106 -0.454719 0.890297 0.181676 -0.751369 0.63438 -0.669553 0.734344 0.111522 0.172786 0.232014 0.957243 -0.614718 -0.681404 0.397252 -0.634269 0.428283 -0.643643 -0.842162 0.281438 0.459952 0.901833 0.358884 -0.240623 -0.805093 0.590179 -0.0592728 -0.438203 0.653806 -0.61686 0.744206 0.58934 0.314381 -0.645293 -0.0910641 -0.758488 0.602537 0.652974 -0.458884 0.0870769 0.918389 -0.385979 -0.0420618 -0.654964 -0.754488 -0.708896 -0.411895 0.572546 -0.146756 -0.864021 -0.481591 0.596984 -0.256374 -0.760186 0.144035 -0.612043 0.777597 0.74374 0.607647 -0.278595 0.923867 0.253631 -0.286603 0.428436 0.592507 0.682187 0.72823 -0.648543 0.221527 0.122332 0.277709 -0.952844 -0.412079 -0.53612 -0.736727 0.944691 -0.251253 0.210786 -0.862955 0.188379 0.468852 -0.800382 0.2915 -0.523847 0.062573 0.103121 -0.992699 -0.145593 -0.9662 -0.212744 -0.77974 -0.617716 0.102137 0.376228 0.0364163 0.925811 0.926172 -0.286568 0.24512 -0.616479 0.0979013 0.781261 0.310847 0.401591 -0.861452 -0.0251345 0.975058 -0.220522 -0.0859022 0.295379 -0.95151 -0.0607677 -0.67968 -0.730988 -0.93624 -0.336723 -0.100356 -0.878987 0.0519046 -0.474012 -0.955545 -0.00138766 -0.294843 0.169014 0.2965 -0.939959 -0.51738 -0.422562 0.74415 0.599901 -0.796208 0.0785632 0.306969 0.951703 -0.00567555 0.956495 -0.168743 0.237997 -0.365716 0.807116 0.463481 -0.2838 0.760218 0.584402 0.919464 0.308522 0.243723 -0.921148 0.258076 -0.291349 -0.477664 -0.314389 0.820364 0.287711 0.454939 -0.842765 -0.811045 -0.285594 -0.510531 0.851336 0.358852 -0.382691 -0.955982 0.266804 0.12212 -0.972918 -0.0780136 -0.217588 -0.333244 0.565201 0.75465 0.563142 -0.65885 -0.498786 0.959427 -0.123549 0.253446 0.946745 0.168944 -0.274103 0.186473 -0.979873 -0.0712558 0.0809327 -0.31965 -0.944073 0.182665 -0.170166 -0.968337 -0.0365227 0.0711234 0.996799 -0.958132 0.279691 0.0612936 0.211778 0.788697 0.577154 0.343661 0.806421 -0.481229 0.915303 0.191272 0.354452 -0.469696 0.781123 0.411379 0.448722 -0.199814 -0.871047 0.129204 0.405709 -0.904824 -0.456691 0.611624 0.646026 -0.560382 0.725012 -0.400413 0.997577 0.0673682 -0.0173666 -0.234909 -0.545585 -0.804459 0.872788 -0.0670046 -0.483479 0.718861 -0.602346 0.347013 -0.574212 0.788122 -0.221686 -0.248801 -0.814991 -0.523343 0.230995 -0.872732 0.430093 -0.153926 -0.535341 0.830492 -0.135108 -0.949229 -0.284095 0.203723 -0.721661 0.661591 -0.971415 -0.196197 -0.133642 0.74647 0.235465 -0.622366 -0.162859 0.680343 0.71457 0.289127 -0.203133 -0.935491 0.170587 -0.978637 0.11476 -0.852598 0.323275 -0.410572 0.312074 0.887843 -0.338148 0.96234 0.259963 -0.0794996 -0.681489 -0.43732 -0.586791 -0.903811 -0.1165 -0.411768 0.079908 -0.165339 -0.982994 -0.960532 0.0768986 -0.267329 -0.970656 -0.228829 -0.0739155 -0.918924 -0.333063 0.211301 -0.403209 0.893034 0.199784 0.579995 0.64143 -0.502168 0.671859 -0.00721766 -0.740644 0.688597 -0.604434 0.400617 0.24297 -0.922348 -0.300399 -0.770973 -0.0908538 0.630354 -0.556932 0.814024 0.164899 0.339366 -0.538313 0.771394 -0.243278 0.739678 0.627449 -0.921592 0.240582 -0.304612 0.913009 -0.222254 0.342078 -0.498852 0.0941562 0.861558 -0.916159 0.308769 -0.255567 -0.551105 0.0307042 0.833871 0.257854 0.119034 0.958824 -0.5009 -0.857366 -0.118419 0.694837 -0.694722 -0.185911 -0.475234 0.298625 0.827633 -0.438787 -0.748045 -0.497891 0.103766 -0.986402 -0.127454 -0.366995 0.284675 -0.885593 0.991534 0.0489885 0.120254 0.594053 -0.235527 0.769174 -0.21053 0.802029 0.558952 -0.22178 -0.743395 -0.631013 0.304542 -0.948923 -0.0824519 -0.473883 -0.564792 0.675607 0.592006 0.800808 0.0907481 0.00190365 -0.540049 -0.841632 0.331165 0.31281 0.890213 -0.567124 0.798958 -0.200092 0.893851 0.42398 0.145847 0.407804 -0.811741 0.418057 -0.943002 -0.332231 -0.0192349 -0.253686 0.831406 -0.494376 -0.596044 0.220589 0.772057 0.587912 0.711869 0.384191 0.762525 -0.615048 -0.200678 0.428761 0.0447129 0.902311 -0.341273 -0.071002 -0.937279 0.202907 -0.833455 0.513986 -0.358158 0.578319 0.732987 -0.926045 0.20459 0.317149 0.173033 0.504442 0.84593 -0.12278 -0.658693 0.742326 -0.949185 -0.234926 -0.20942 0.888641 -0.20466 0.410404 0.590805 -0.491854 0.639554 -0.345793 -0.878376 0.329974 -0.256113 0.787606 -0.560431 0.276062 -0.800303 0.532264 -0.769853 -0.369124 -0.520648 0.882909 0.45689 0.108279 -0.781009 0.254769 0.570191 0.214466 -0.971276 0.103088 0.177368 0.249973 -0.951869 -0.639687 0.747321 -0.179757 0.292334 -0.461761 0.837447 -0.235511 0.892513 0.38465 0.416442 -0.645842 -0.639894 0.57134 -0.359872 0.737606 -0.872508 -0.386738 0.298601 0.45081 -0.591266 0.668711 0.700251 -0.608817 -0.372814 0.732449 0.61769 -0.286319 0.639073 -0.627596 0.444645 0.661332 0.416005 -0.624163 -0.929845 -0.31795 0.185194 -0.553398 0.562558 -0.61423 0.356859 0.0659469 0.931828 0.103922 -0.825211 0.555182 -0.252936 -0.891157 -0.376645 -0.557874 -0.490301 -0.669613 0.177438 0.962677 -0.204372 -0.376394 0.0950206 -0.921574 0.342096 -0.713875 0.611026 0.923459 -0.224633 0.311068 0.753869 -0.223274 -0.617924 -0.713374 0.680703 0.166557 0.315388 0.0457448 0.94786 0.941408 -0.250088 0.22629 -0.293932 0.796458 -0.52845 -0.913601 -0.370881 0.166676 0.844491 0.293151 0.448216 -0.545446 0.0982176 -0.832372 0.393506 -0.281371 -0.875205 0.20114 -0.477621 0.855231 0.134731 -0.511732 0.848515 -0.636704 -0.768412 0.0644295 0.389431 0.862962 0.321932 0.497198 0.676852 -0.54283 -0.0976529 0.441116 0.892121 -0.786405 0.546962 0.287053 0.326321 -0.853564 -0.406132 -0.718689 -0.129247 -0.683214 -0.819606 -0.514581 -0.251896 0.272537 0.769891 0.577054 -0.952802 0.293562 0.0773927 -0.680298 -0.205717 0.703473 0.159029 0.576708 -0.801322 -0.821079 0.500335 -0.274762 -0.686673 -0.670743 0.280329 0.559548 0.682363 0.470412 0.827213 0.460483 0.321985 -0.514905 0.838242 -0.179509 -0.0789367 0.992068 0.0978279 -0.517581 0.529115 -0.672419 0.374642 0.92131 0.104067 -0.57896 0.801832 0.14789 0.926008 0.0259955 -0.376607 -0.77176 -0.371724 -0.515953 -0.242136 0.708898 0.662445 0.484753 0.570268 0.663181 -0.54767 0.752328 -0.366142 -0.275621 -0.25717 -0.926227 0.00876333 -0.98042 -0.196723 -0.134496 0.75895 -0.637107 -0.772984 0.229957 -0.591283 -0.597572 -0.778275 0.192863 0.494694 0.297831 -0.81644 -0.883007 0.253636 0.394928 -0.243624 -0.308526 0.919489 0.639382 -0.562161 0.524562 0.773375 -0.331013 0.540668 -0.0119418 0.9496 0.313236 -0.812481 -0.00693045 