# vtk DataFile Version 4.0
Generated by libgran
ASCII
DATASET POLYDATA
POINTS 1686 FLOAT
-31.7648 1.18846 6.68372 -30.6186 0.700743 8.15648 -32.2314 0.98858 4.97292 -31.377 2.13922 6.04411 -32.7582 0.490762 9.17614 -32.6674 1.33937 3.80098 -31.3464 0.103628 12.8799 -31.4848 -1.51148 13.5794 -31.6006 0.739115 11.7398 -31.37 -0.471314 10.4423 -30.9745 1.21882 10.3979 -30.1438 1.26174 9.38462 -31.6657 -2.76724 16.3233 -30.662 -2.64797 15.4593 -30.5612 -1.51364 15.3258 -29.6841 -0.0901293 14.7982 -29.0356 0.226811 15.4903 -28.9925 0.628366 14.0295 -33.0398 -3.5719 14.2591 -35.2974 -3.71794 15.4544 -34.1012 -3.458 14.9352 -34.5288 -3.45666 16.631 -36.0367 -4.20089 14.4539 -34.0535 -3.71905 17.7144 -34.1515 -2.2862 17.9862 -34.4428 -1.74878 19.0262 -33.1609 -1.76775 19.3513 -33.1182 -3.14054 22.0785 -33.8701 -1.98235 22.7725 -33.2242 -2.16442 21.046 -33.3332 -4.42506 22.3465 -34.6204 -5.53056 21.7137 -33.5503 -2.06898 24.4234 -32.5 -2.82907 19.8178 -34.0408 -5.84701 19.6492 -34.9646 -6.78588 19.0972 -32.8483 -6.40715 19.4693 -31.7914 -6.73893 19.4206 -31.1792 -5.95253 20.9314 -31.8717 -5.51826 22.4726 -30.5498 -4.69617 21.3858 -34.5061 -8.21164 19.8278 -26.7373 -11.7348 21.9023 -27.5679 -11.0175 21.1517 -28.9072 -11.7748 20.8196 -26.3784 -11.4198 23.8346 -27.7772 -11.3622 24.2109 -30.4191 -12.5564 20.6711 -31.8511 -9.45136 18.5944 -30.7127 -8.84212 18.0422 -31.5011 -10.7137 18.8227 -33.0145 -10.4202 19.1598 -30.9268 -11.9741 19.6492 -33.8129 -9.58599 20.2016 -29.7583 -9.94615 16.8992 -29.6997 -10.9077 15.5014 -28.9987 -13.2212 15.6958 -28.5178 -12.7822 14.5362 -29.6962 -11.9755 14.6951 -27.8339 -12.9305 16.9396 -26.6536 -12.3869 14.5004 -26.3045 -12.8934 17.5247 -26.259 -14.0244 17.4777 -25.5278 -9.89036 11.497 -26.5117 -10.2659 11.0286 -26.9037 -9.02878 12.0958 -24.2934 -10.0276 11.9717 -24.0441 -10.3172 10.3604 -24.33 -10.2928 13.8169 -25.218 -11.281 14.7574 -36.2542 14.6344 2.55524 -36.0613 14.0869 0.657728 -35.8522 13.1163 0.538585 -35.5759 15.2885 3.84233 -35.1874 15.2291 4.86685 -34.3044 15.6686 5.03133 -34.7275 15.1131 5.74716 -38.9524 13.0571 -0.418508 -39.7295 13.6489 -1.3195 -38.0984 14.5324 -0.701955 -38.3459 12.7944 0.475353 -38.9436 11.2701 -0.234396 -39.5531 10.107 0.0837388 -40.1939 8.88756 0.650238 -44.2651 9.02775 -0.830802 -44.1442 8.19626 -1.65044 -44.8521 10.3568 -1.70698 -44.1511 10.4746 0.54374 -41.0156 8.26311 0.365972 -39.7998 7.39414 -0.240968 -39.8879 7.67344 -1.5344 -39.3916 6.7753 -2.03786 -39.5189 5.96242 -0.686499 -39.7349 9.1779 -2.43476 -41.1581 8.07401 -2.3234 -39.6068 9.59087 -3.70226 -39.3748 4.53896 -1.17646 -40.0483 4.42418 0.293035 -39.4143 6.2269 -8.53069 -38.4282 6.05138 -9.40524 -39.336 4.50836 -9.29593 -39.8461 7.75159 -10.2271 -40.4529 7.14001 -10.8606 -41.0245 7.85408 -9.19737 -41.4662 6.67256 -11.6919 -41.6313 7.24251 -9.83091 -40.1944 2.92264 -9.18552 -40.9877 8.15419 -7.04795 -41.5196 8.10649 -8.27727 -41.2737 8.09588 -5.85599 -41.7989 7.84957 -4.89273 -42.6564 7.43076 -4.30556 -41.9147 7.31974 -3.54748 -43.7623 8.71016 -4.7005 -42.5564 8.53439 -2.48673 -37.3766 2.69736 -11.3079 -35.9959 3.01699 -12.2648 -36.6382 1.69095 -10.9618 -37.8288 3.89825 -10.9591 -38.2384 5.10032 -11.3967 -39.8675 4.86976 -11.5159 -37.076 0.0921386 -10.6137 -40.8335 4.34234 -12.1787 -39.8981 -0.575184 -8.21107 -39.3213 0.646001 -8.30472 -40.4985 1.27109 -8.63045 -38.1853 1.84035 -8.54537 -26.037 12.8481 19.5041 -26.4474 13.8882 20.2236 -24.8691 13.8321 19.9557 -27.3362 12.2741 18.295 -29.1947 13.0252 19.3231 -29.9682 10.6612 17.6323 -29.8148 12.1397 16.4967 -30.7377 9.6482 17.4817 -30.3691 8.87982 18.1525 -29.0157 11.883 15.953 -32.4361 9.40834 17.5335 -31.2025 9.66434 16.0872 -33.1426 9.3002 19.0618 -26.6735 4.43477 12.9535 -26.47 3.31625 12.9344 -27.012 5.67068 13.3086 -28.5282 4.91116 13.4041 -27.8646 2.62549 13.8249 -27.6832 2.1454 12.413 -28.2158 2.02871 15.2323 -27.3824 1.30635 11.2914 -27.1292 1.46484 10.2597 -30.0313 9.12144 15.284 -31.1092 9.08519 14.5062 -28.6965 9.12506 14.8729 -30.9894 7.53494 13.633 -32.1363 8.89581 13.3271 -31.4625 6.27101 13.6088 -30.0264 5.81534 13.5397 -32.8981 6.2581 5.3202 -33.771 5.68207 4.49913 -32.6319 7.13636 6.06614 -32.0441 5.54359 6.61231 -35.4666 4.81288 4.83503 -33.4981 3.59825 6.30103 -36.6121 5.14854 4.18691 -36.1901 5.21216 2.73349 -39.1375 3.49033 2.46726 -37.5446 3.27695 2.78264 -40.2793 3.81708 1.87177 -40.2522 3.29319 0.111216 -36.5442 4.83233 1.83281 -37.0323 2.65055 4.10455 -32.3181 5.74057 11.3276 -31.6602 8.03858 10.3157 -33.075 8.32181 11.3076 -33.3623 8.68341 12.314 -34.1364 7.63333 12.7053 -32.4844 10.2683 12.5493 -34.5935 6.3348 13.3323 -34.1041 3.06128 8.86232 -33.7854 3.0494 10.1531 -33.0292 3.21429 7.19906 -33.3141 3.47371 11.3981 -26.0533 23.3698 27.9102 -26.5674 22.113 28.3816 -26.1197 22.8761 29.47 -25.7737 23.5551 26.6235 -26.0694 25.0286 27.275 -26.7485 26.2583 27.3719 -23.2432 23.3983 27.8706 -22.9368 23.5565 30.1904 -23.7565 24.2022 31.3664 -22.6603 23.3382 28.9082 -22.2298 23.0192 27.9355 -23.8692 25.2692 28.4699 -23.7359 24.3017 32.5994 -25.5361 27.4067 32.8177 -25.1235 28.3436 33.6691 -26.0978 29.2657 32.9562 -25.8952 26.8045 31.959 -24.9823 26.0503 31.6903 -23.515 28.7967 34.7037 -25.7503 25.2431 30.9938 -21.0405 25.6209 34.4258 -21.2963 24.3231 34.561 -20.846 26.7044 34.4713 -19.8004 27.249 35.3186 -20.8045 28.1419 34.9385 -18.2781 26.8244 36.0325 -18.3666 28.0861 35.7079 -21.7609 29.1286 34.8498 -19.8234 29.2103 34.4667 -28.1522 23.8266 32.6824 -28.4812 26.0839 33.1148 -30.6607 25.09 35.1257 -30.5997 23.9869 34.2303 -30.2079 23.3521 32.4805 -26.8637 23.4943 32.5864 -32.0557 21.2938 30.4666 -32.6223 22.1438 31.9362 -30.8073 20.9941 30.1159 -29.9636 20.6336 29.7183 -32.6847 23.1538 33.2263 -33.6026 22.799 33.0488 -35.3416 23.4108 32.8435 -36.0712 23.4208 31.5293 -35.7232 22.5424 31.0347 -36.9476 24.8932 30.7589 -37.4779 24.6816 32.3826 -37.8632 25.442 31.4014 -36.8156 22.6554 32.8381 -37.4914 25.6341 34.004 -37.5543 26.727 32.1364 -41.3859 26.4506 35.2974 -40.7316 27.5227 34.861 -39.8263 26.7003 34.3672 -38.428 26.5784 34.1048 -41.2753 26.8281 33.1316 -37.2906 26.7187 33.7653 -37.1865 10.4086 21.3939 -37.5394 9.43829 22.231 -38.68 10.8528 21.9685 -35.776 9.97743 20.6561 -36.664 11.4595 20.5171 -34.6335 8.50956 20.5202 -33.6848 7.61774 19.8767 -34.2077 6.93991 19.1174 -32.5382 6.9769 19.2534 -34.7895 5.94275 18.4577 -35.0486 5.58583 19.8241 -30.8338 5.14606 18.9449 -30.3052 6.09926 18.6373 -41.6439 12.0493 20.5615 -42.4419 11.4788 21.4591 -43.791 11.3276 20.564 -41.6531 13.5289 20.7805 -42.9007 13.4768 20.0033 -40.3271 9.28909 19.0372 -40.2717 10.8873 19.6868 -39.9133 8.84996 19.9847 -39.4655 8.36234 20.7343 -37.6968 8.36537 20.1631 -38.7712 7.5773 21.3515 -30.1962 16.3103 21.9833 -31.3411 16.4418 22.6466 -30.2467 16.0458 23.8621 -29.1961 15.6753 21.3228 -30.0846 15.5176 20.2649 -32.282 17.2903 22.866 -31.8124 18.2295 24.2779 -30.7679 18.8238 25.7969 -34.2088 11.6644 19.2444 -33.356 11.2736 20.1553 -32.4139 12.1408 19.3393 -35.0016 12.6813 18.919 -36.12 11.9838 19.6178 -31.2561 12.0911 20.159 -30.9628 13.0471 20.1599 -29.5899 20.1187 26.281 -29.6987 18.5612 26.0107 -30.4724 20.2355 28.4325 -31.8222 20.3511 27.2971 -29.5297 17.0126 26.127 -28.9978 15.8026 26.9796 -31.4297 20.6428 24.9612 -32.4732 20.0549 25.935 -31.2337 21.944 25.1522 -32.719 22.7534 24.8143 -34.3395 22.6252 24.8955 -34.2411 24.0176 23.2399 -5.74926 23.774 37.7281 -4.75626 23.7139 37.8298 -7.00523 23.3341 37.7966 -5.24817 23.0186 37.3058 -7.7625 24.4556 38.8887 -8.58596 23.0201 38.2949 -8.61889 24.1023 38.5122 -8.61211 24.9684 39.0119 -4.53087 22.0031 37.5131 -3.46454 22.6663 36.8695 -4.13361 20.3098 37.5676 -9.49556 22.1681 37.246 -5.15974 18.4961 38.8876 -5.35662 19.3837 37.6474 -5.78748 17.2104 39.09 -6.06714 16.1664 39.3865 -3.57513 19.678 38.5043 -0.816006 23.9512 37.8127 -1.9623 24.0758 37.1504 -2.13617 22.855 37.0239 0.23023 25.5043 37.6831 -1.99176 25.7235 36.837 -2.30334 21.6158 36.8678 -2.15749 27.4829 37.2474 0.538213 29.8877 37.5313 1.41143 28.6686 38.2041 -2.26138 29.1404 36.9655 2.3734 28.2852 37.3446 -2.98056 28.4391 38.3458 -20.408 31.1819 42.1838 -19.215 30.6848 41.8711 -20.4867 31.1347 43.8836 -21.6917 30.6762 42.4613 -18.0076 29.4324 44.2601 -18.3878 29.7714 45.8224 -17.461 28.8138 42.7361 -15.1641 27.9496 40.7944 -15.9426 27.767 41.8567 -14.2526 26.5841 40.5879 -16.9956 27.662 42.0571 -16.8581 26.4988 42.9884 -15.9633 26.0202 42.3889 -13.064 26.5345 41.3704 -13.8646 26.0398 42.0156 -16.704 25.6192 44.3071 -11.0874 22.9938 41.9389 -12.3064 23.3349 42.3526 -10.9561 23.4914 41.0815 -10.1664 23.1207 41.5704 -12.5574 24.2711 43.443 -12.9607 23.2223 44.2261 -13.1901 25.7267 43.3105 -10.1758 24.6067 40.7704 -14.7967 25.6585 42.7543 -9.9041 26.7078 38.7209 -9.31108 25.5641 38.3623 -10.4854 26.2488 40.0901 -10.5692 27.2239 40.2956 -11.4754 26.8079 38.7893 -10.4001 26.5702 41.0332 -19.3229 34.4935 39.5949 -19.4248 35.4765 37.9652 -18.336 34.8698 40.4034 -18.182 36.4632 40.213 -17.8935 36.1844 41.129 -18.4052 37.0343 41.003 -18.3717 38.1662 40.4976 -19.3091 35.143 36.9117 -20.051 36.5553 37.474 -17.3389 37.3799 41.8475 -18.3677 39.9423 44.4834 -20.086 39.769 43.8594 -20.2267 40.2777 44.8986 -20.3586 39.0908 42.4535 -21.7219 39.1673 43.6268 -18.9733 38.8897 41.2693 -17.3054 38.5118 41.3421 -20.079 41.9192 46.4508 -18.8642 42.5213 45.2495 -19.5908 41.3106 47.5276 -20.7911 40.8436 46.2147 -18.7538 42.6789 43.9978 -17.5659 43.3008 44.8856 -20.0438 38.81 48.3639 -21.1799 37.6045 51.2759 -20.4231 38.6727 51.0427 -21.4634 39.4648 51.7443 -19.4459 38.4864 49.8445 -17.8401 39.2712 49.8642 -22.3063 40.3041 51.5717 -16.4337 27.6898 38.5234 -15.7459 27.4182 37.4184 -15.878 28.8042 37.2651 -15.518 25.8695 37.3786 -16.9851 29.1525 36.2957 -14.4558 25.3047 38.5192 -12.9728 26.1111 38.6501 -18.385 29.1258 35.2442 -18.6134 30.2857 34.0873 -17.9307 29.5588 34.0136 -17.7063 30.4873 33.7178 -18.8621 31.3462 35.8039 -18.4961 30.7588 36.8349 -21.5008 29.8734 36.8306 -21.9347 31.1116 35.8102 -21.5473 33.1809 41.4014 -23.1831 32.5752 41.4908 -20.9646 32.326 40.5661 -21.3
[...]
POINT_DATA 1686
FIELD FieldData 1
normals 3 1686 double
-0.363309 0.3322 -0.870431 0.782949 -0.155516 0.602334 -0.103327 -0.532079 -0.840367 0.751071 0.61856 0.230817 -0.390974 0.847599 0.358769 -0.332582 0.882864 -0.331572 -0.357658 0.915234 -0.185547 -0.496038 -0.699873 0.513931 0.10347 -0.279747 -0.954482 0.127141 -0.930681 -0.343028 0.522598 0.759448 -0.387466 0.308168 -0.716518 -0.625807 -0.444097 -0.803533 0.396374 0.559562 -0.684264 -0.467625 0.66034 0.450066 -0.601159 0.216763 0.973447 0.0735872 -0.431802 0.656507 -0.618503 0.474888 -0.254952 -0.842307 -0.788516 0.594559 -0.157295 -0.923346 0.22072 -0.314188 0.272844 0.480659 -0.83338 -0.154797 0.481992 0.862393 0.18395 -0.703676 -0.686296 0.630138 -0.744374 0.220985 0.532076 0.688467 0.492857 -0.823349 -0.151041 0.547067 0.458564 -0.170015 0.872247 0.627808 -0.749467 0.210136 -0.124099 0.408732 0.904178 0.521838 0.226655 -0.822382 -0.842831 -0.535054 0.0579104 -0.444313 -0.570443 -0.690783 0.443905 -0.495361 0.746703 0.202342 -0.8913 -0.405761 0.805343 -0.0533394 0.590404 -0.118511 -0.992208 0.038444 0.387075 -0.506802 -0.770276 0.669857 0.17502 0.721568 -0.0576045 0.611378 0.789239 -0.634955 -0.177106 0.751974 0.686928 0.644987 -0.334845 0.577013 -0.433551 0.692162 -0.238871 0.970942 0.0145403 -0.591771 -0.253616 -0.765171 -0.747506 -0.503631 0.433118 0.844358 0.459254 0.275944 -0.554431 0.516908 0.652236 -0.76446 -0.27805 -0.581626 -0.481181 -0.862291 -0.157861 0.657166 -0.253052 -0.709999 0.831124 -0.400052 0.386252 -0.682224 -0.106576 0.723334 -0.256812 -0.860372 0.440236 -0.116211 0.940806 0.3184 0.297229 -0.850974 -0.43301 -0.238631 -0.110604 -0.964791 0.455369 -0.288453 0.842279 0.936305 0.150517 -0.317297 -0.242138 0.957216 -0.15845 0.70943 0.579215 0.40152 0.927818 0.244807 0.281466 0.820001 -0.542121 0.183584 0.774575 0.588939 0.230619 0.89092 0.000903086 -0.45416 -0.0930043 -0.374607 -0.922507 -0.484955 0.862484 0.144704 0.343482 -0.138135 0.928945 0.592806 -0.427689 -0.682395 -0.380123 -0.127077 0.916165 -0.507826 -0.861113 0.0244203 -0.133262 0.158032 0.9784 0.0596432 -0.389458 -0.919111 -0.149471 0.581128 -0.799968 0.811546 0.496089 0.30869 -0.423068 -0.555518 0.71583 0.459993 -0.116029 0.880309 0.883061 0.439489 0.164476 -0.108199 -0.850497 0.514731 -0.885385 -0.258646 -0.386258 0.745723 0.624824 0.231284 0.714673 0.587796 0.37913 0.116957 -0.936489 -0.330619 -0.726493 -0.226552 0.648754 0.0857087 -0.992919 -0.0822548 -0.625725 0.778912 -0.0420078 -0.504784 -0.0525842 -0.861642 0.0387074 0.550153 -0.834166 -0.577228 0.81249 -0.0816573 0.907426 -0.368469 0.202011 -0.308387 0.500496 0.808951 -0.396474 0.779797 -0.484484 0.0998255 -0.118343 -0.987942 -0.0274562 -0.931221 0.36342 0.549474 0.724656 -0.415874 -0.873762 -0.379229 -0.30451 -0.421405 -0.31168 -0.85163 0.171558 -0.492248 -0.853381 -0.501919 -0.607027 0.616114 -0.371772 0.824765 0.426085 0.614294 0.649245 -0.448467 -0.293496 -0.893777 -0.339151 -0.391902 0.614662 0.684546 -0.998694 0.00308487 0.0510053 -0.786483 -0.512168 0.345151 -0.0146245 -0.470533 -0.882261 -0.179687 0.0994088 0.978688 -0.564895 -0.691946 0.44956 0.240608 -0.71687 0.654373 -0.291311 -0.764572 -0.57495 -0.526586 0.658565 0.537586 0.00135954 -0.904876 0.425674 -0.858872 0.486066 0.161489 -0.117164 0.375042 0.919574 -0.247012 0.793331 -0.556427 -0.524532 0.839604 0.141179 -0.888336 0.301049 0.34674 0.492415 0.620675 -0.610156 -0.149867 -0.705361 0.692824 0.436205 0.899845 0.00197408 -0.845845 0.302218 -0.439557 -0.783273 -0.532773 0.320368 -0.287917 -0.893452 -0.344744 -0.182652 0.00535198 -0.983163 -0.339545 0.88667 -0.313888 0.916294 0.334516 0.220236 -0.260831 0.959602 -0.105502 0.219704 0.85983 -0.460893 -0.395126 -0.452883 -0.799232 -0.805505 0.587211 -0.0796483 0.772753 0.531061 -0.347601 -0.904075 -0.121119 -0.409852 -0.668376 0.089682 -0.738398 0.101518 -0.936837 0.33471 0.254894 0.541714 -0.800984 -0.870983 -0.0761492 -0.485377 -0.502377 -0.844523 0.185469 -0.544233 0.798488 -0.257347 -0.827421 -0.163708 0.537191 0.406145 0.0922965 -0.909136 0.120852 0.0555662 0.991114 -0.886944 0.413007 0.206773 -0.683409 -0.705508 0.187644 0.548506 0.8229 0.148245 -0.967762 0.0633839 0.243759 -0.71122 0.0147421 0.702815 -0.529841 -0.465344 -0.70903 0.360018 -0.611522 0.704576 0.830712 -0.373703 -0.412631 -0.577529 0.532193 -0.619056 0.76505 -0.635196 0.105944 -0.312816 -0.67145 -0.67179 0.569743 0.638817 -0.517017 0.432566 -0.878802 -0.201481 -0.714278 0.482067 -0.507364 -0.905673 -0.385124 0.177304 0.530435 -0.840797 0.108166 0.140294 -0.0841701 0.986526 -0.732637 -0.660202 0.165458 0.125902 0.962428 -0.240583 0.713645 -0.630341 0.305583 -0.962953 -0.208979 0.170439 0.979212 -0.193967 0.0593276 -0.182586 0.544631 -0.818559 0.604631 -0.481013 -0.63486 -0.87092 0.326681 0.367122 0.722051 0.113299 0.6825 -0.270861 6.98681e-05 -0.962618 0.297949 -0.523956 -0.797933 0.958699 -0.101185 0.265816 -0.209776 -0.739693 0.639413 0.254883 -0.696941 0.670305 -0.615636 0.616094 0.491346 -0.799153 -0.332866 0.500555 0.511784 0.694466 0.505761 -0.262264 -0.355613 0.897082 0.366114 0.890412 -0.270421 -0.194803 -0.942918 -0.270106 0.56457 -0.0369892 -0.824556 0.883291 -0.048872 0.466272 0.510366 0.189998 -0.838706 -0.411975 0.47319 0.778697 -0.296333 0.699047 -0.650784 -0.810373 -0.557774 -0.179401 -0.362667 0.205363 0.90901 0.575936 -0.513736 -0.635903 0.280306 0.959784 0.0155895 -0.959449 0.269916 0.0812542 0.773758 0.567014 0.282479 0.0857501 -0.845539 -0.526982 -0.733991 -0.199883 0.649079 0.190796 0.627153 -0.755166 0.23968 -0.946161 -0.217561 -0.333124 -0.44719 -0.83009 0.754599 0.299358 0.583922 0.393625 -0.881024 -0.262403 0.806203 0.0558762 0.588995 -0.168007 0.977965 -0.123927 -0.752717 0.278883 -0.596357 0.160176 -0.475369 -0.865083 0.802311 0.397186 0.445578 -0.928138 -0.331868 0.16859 0.148492 0.567541 -0.809844 -0.107331 -0.730332 -0.674607 0.046006 0.515907 0.855408 0.999555 0.028723 -0.00810364 -0.00449503 0.921565 -0.388199 0.52277 -0.453305 0.72196 0.434275 0.808374 0.397413 -0.951872 0.0652069 0.299479 0.985618 0.146846 -0.0836267 0.506506 -0.514178 -0.692151 0.849543 -0.198684 -0.488673 0.0605824 -0.993286 0.0985578 0.000411397 -0.109855 -0.993948 0.391374 -0.524939 -0.755821 0.781999 0.181891 0.596149 0.384047 -0.783348 -0.488747 -0.182634 0.0666486 0.980919 0.864304 0.483656 0.138044 -0.0205782 -0.84418 -0.535664 0.120256 0.943373 0.30917 -0.797667 0.588559 0.131628 -0.941248 0.0232026 -0.336919 -0.21159 0.0132233 0.977269 0.136388 -0.865129 0.482649 -0.63847 -0.412049 0.650055 0.108172 0.200362 0.973732 -0.277145 0.960799 -0.00754104 -0.532839 -0.778568 0.331533 -0.121668 0.752173 0.647636 0.586056 0.324179 0.742595 -0.976286 -0.179435 0.121112 -0.321987 0.892692 -0.315317 0.583393 0.070272 -0.809145 0.814914 -0.192166 0.546797 -0.43305 -0.801313 0.412753 0.322408 0.332444 -0.886303 0.896179 0.314065 -0.31341 0.543249 -0.656234 0.523677 -0.597377 0.758233 0.261195 0.51433 -0.745225 -0.424386 -0.373653 0.736837 -0.563431 0.628131 -0.722647 0.288499 0.320595 -0.169175 -0.931986 -0.843487 -0.508646 0.172655 0.82598 -0.471657 0.308702 0.261712 -0.488517 -0.832381 0.00254842 -0.845441 0.534063 -0.0335421 0.395181 -0.917991 0.562184 0.558017 0.610382 0.0602827 -0.0668158 0.995943 -0.858298 -0.503645 -0.0983196 -0.490837 0.352361 -0.796819 -0.982204 0.0471739 0.181798 -0.265385 -0.099326 -0.959012 0.963738 0.0404101 0.263773 0.0321142 -0.0990414 0.994565 -0.549978 -0.479546 0.683783 0.997804 -0.00807346 0.0657353 0.770861 0.0111069 -0.636906 -0.30351 -0.776961 0.551555 0.193816 -0.1321 -0.972103 -0.951124 -0.000570085 -0.30881 0.143263 -0.396608 0.90674 0.806246 -0.502849 0.311625 -0.0822629 -0.660528 -0.746281 0.0102145 0.849022 0.528259 0.459416 0.0902546 0.883624 0.585021 0.504026 0.635381 -0.993554 0.106946 0.037592 -0.140804 -0.283829 0.948481 0.801348 0.583338 0.132509 0.200684 0.909926 -0.362989 -0.917641 0.212488 0.335833 0.356386 -0.63302 0.687222 0.64972 0.322989 0.688144 0.592986 0.790876 -0.151269 0.484195 -0.766667 -0.421636 0.488193 -0.446087 0.750116 -0.86161 -0.330511 -0.385214 -0.315182 -0.781854 0.537926 0.847091 -0.428215 0.314751 0.832869 0.553461 0.00318494 -0.210597 -0.0343625 0.976969 -0.636841 0.747776 0.187788 -0.848503 0.0615952 -0.525594 -0.77193 -0.189767 0.606722 -0.463953 -0.71544 -0.522392 -0.491916 -0.695288 -0.524017 0.501083 -0.755361 -0.422309 -0.764056 0.255353 0.592464 0.992999 -0.0600746 0.101707 0.00678059 0.86618 0.499686 -0.816678 -0.569355 -0.094185 -0.8496 0.512845 0.123167 -0.856381 -0.353335 -0.376519 -0.275696 -0.955434 0.105538 0.790635 -0.292251 -0.538039 0.672962 -0.737915 -0.0510211 -0.0929146 -0.282637 -0.954716 0.302269 -0.920853 0.246301 0.105392 -0.0332764 -0.993874 -0.930012 -0.364897 -0.0439155 0.650357 -0.679083 0.340413 -0.114482 0.106168 0.987736 0.782437 0.615243 0.0962724 -0.363857 0.739764 -0.566001 -0.537732 -0.480969 -0.692469 0.263799 0.937779 -0.22579 0.334394 0.907954 0.252586 0.370571 -0.75826 0.536394 -0.500123 0.851455 0.157799 -0.430097 0.337861 -0.837178 0.443123 -0.881247 -0.164457 -0.396237 -0.806045 0.439644 0.518843 0.497795 -0.694983 -0.322949 0.104786 0.940598 -0.5601 -0.0842366 0.824131 0.632862 -0.581325 0.511417 0.481404 0.0370641 0.875715 -0.723558 -0.421491 -0.546634 0.742625 -0.188861 -0.642526 0.362468 0.150203 0.919813 -0.195997 -0.429649 -0.881469 0.386842 -0.644609 -0.659418 -0.391652 -0.827218 0.402888 0.524611 -0.720853 0.452939 -0.661364 0.722216 -0.202489 -0.523854 -0.440996 0.728766 0.370972 -0.919605 0.129253 0.663979 0.671247 0.329484 -0.136539 0.176547 0.974776 0.677939 -0.438599 0.58994 0.78964 -0.370699 0.488928 -0.429374 -0.0296488 0.90264 0.920929 0.126879 -0.368498 0.131289 0.497578 -0.857426 0.178346 0.9659 0.187697 -0.224961 -0.0829535 0.97083 -0.81102 0.489666 -0.320116 -0.140606 0.988401 0.0573896 -0.795595 -0.557906 -0.236156 -0.750421 0.194663 0.631645 -0.157405 -0.949027 0.273078 0.169078 -0.653694 0.737629 0.0853605 0.321383 0.943094 -0.820897 -0.094621 -0.563182 -0.0837176 0.975077 0.205466 0.321317 -0.367248 0.87286 0.219405 0.615776 -0.756757 0.6656 0.743531 -0.0643339 -0.511655 0.849894 -0.126055 -0.223184 0.571111 0.78995 0.28847 -0.278782 0.916005 0.321926 0.853091 0.410608 -0.103707 -0.949296 -0.296787 -0.845655 0.463006 0.265505 0.777845 0.624386 -0.0714147 0.983812 -0.17443 0.0410783 -0.734422 -0.347632 -0.582903 -0.87517 0.161001 0.456242 0.461809 -0.330614 -0.82306 -0.901512 -0.254076 0.350315 0.923474 0.129557 -0.361123 0.74439 -0.507486 0.433983 -0.40126 -0.670707 0.623813 0.813499 -0.0685893 -0.577507 0.889393 0.0621145 0.452905 -0.310827 -0.404884 -0.859916 -0.703082 0.226222 -0.674166 0.484856 0.848109 0.213603 0.607762 -0.600372 0.519788 0.210457 -0.977595 -0.00400093 0.967214 0.0905554 -0.237268 -0.0731047 0.88264 0.464331 0.00994357 -0.276825 -0.960869 -0.377143 0.510512 -0.772749 -0.769738 -0.0433175 -0.636889 0.715618 0.508049 -0.47935 -0.0278126 -0.779622 -0.625632 -0.159936 0.606314 -0.778976 0.255711 -0.769071 0.585782 -0.947202 -0.257996 -0.190383 0.806486 0.204216 0.554866 0.676488 0.60217 -0.423975 -0.452706 0.231313 -0.861134 0.224324 0.928553 -0.295749 0.90708 0.20164 -0.369524 0.682755 -0.726913 -0.0737746 0.850421 0.117396 0.512837 -0.484442 -0.704836 0.518191 -0.716424 0.644643 -0.266782 0.282512 0.593552 -0.75358 0.94575 -0.0823628 -0.314281 -0.68999 -0.688009 -0.22485 -0.363013 -0.772548 -0.520952 -0.0669455 0.725324 -0.685144 -0.475867 -0.857414 0.195939 -0.996432 -0.0739251 0.0407156 -0.726923 0.686367 -0.0219799 -0.477985 -0.215661 -0.851481 -0.0969319 -0.902542 0.419549 -0.434412 -0.202567 0.877641 0.266967 -0.958749 -0.0976122 0.623103 0.140174 -0.769476 -0.0697876 -0.579618 -0.811895 -0.692891 -0.719793 -0.0424199 -0.626589 0.779141 0.0180265 -0.679266 -0.426342 0.597353 -0.0171309 0.975185 0.220728 0.470091 0.359604 0.806039 0.262022 -0.616445 0.742522 -0.208069 -0.97605 -0.0635163 0.228441 -0.971342 -0.0656463 0.93012 0.355054 -0.0938826 0.982698 -0.143345 -0.117292 0.253373 0.966304 -0.0453729 0.327117 0.122839 0.936966 0.587169 -0.0186505 -0.80925 0.796133 0.0423376 0.603639 -0.11008 0.0871449 -0.990095 -0.396758 0.300488 0.867347 0.564171 0.824171 0.0495266 -0.365422 -0.463497 0.807241 -0.869206 0.493434 0.0316805 0.971456 -0.190899 -0.140825 0.0288426 0.493173 0.869453 0.238699 0.970955 0.0164088 -0.522231 -0.778228 -0.348764 0.209857 0.477783 -0.853044 -0.249315 -0.165156 0.954235 -0.0276445 -0.119859 -0.992406 -0.916811 -0.223261 -0.331076 0.15862 0.246683 -0.956027 -0.339584 0.939123 -0.0522449 -0.148791 0.524629 0.838228 0.911429 -0.4011 -0.0917419 0.152561 -0.409928 0.899269 -0.136169 0.628124 -0.766106 -0.799267 -0.460688 -0.385927 0.949811 0.158734 -0.269559 -0.0621929 0.019502 0.997874 -0.279472 0.856041 0.434843 0.0609403 -0.141304 0.988089 0.09342 -0.707149 0.700866 0.700429 -0.0354494 -0.712841 -0.109135 0.618798 -0.777933 -0.484879 -0.643144 -0.59267 0.804652 0.249316 0.538865 0.569877 -0.169026 -0.804158 -0.553794 -0.25522 0.792575 -0.0526057 -0.107013 0.992865 0.445735 -0.168046 -0.879251 0.371544 -0.922794 -0.102009 0.922161 0.174811 -0.34505 0.495601 0.632817 0.594914 0.810719 -0.207207 -0.54754 0.869591 0.449537 0.204272 0.0588723 0.656744 0.751812 0.736414 -0.54716 -0.397882 -0.97156 -0.230869 0.052638 0.0234713 -0.998685 0.0455761 0.0160587 0.211591 -0.977226 -0.920583 0.332297 -0.205196 -0.676134 -0.621494 -0.395711 0.33433 0.319211 0.886751 -0.0311071 -0.992483 0.118363 0.832978 0.55285 0.0224448 -0.457486 0.844192 -0.279369 0.834984 0.533962 0.132992 0.411136 -0.748476 -0.520338 0.635054 0.751832 -0.177356 0.748442 -0.0283024 0.662596 0.789955 0.117241 0.601852 -0.295298 -0.876334 0.380576 -0.174472 -0.362213 -0.915621 -0.669669 0.435738 0.601396 0.329424 -0.218821 0.918475 0.469906 -0.546833 0.692937 -0.728868 0.673926 0.12073 0.366256 0.494458 0.788269 -0.37753 -0.604339 0.701602 -0.835467 0.179914 -0.519256 -0.734987 0.317211 0.599309 0.741539 0.376374 -0.555394 -0.878171 0.475713 0.0501236 -0.681786 0.41983 -0.599091 0.687915 0.724007 -0.0508654 -0.788303 -0.353166 -0.503838 0.32711 0.597771 -0.731894 -0.168399 0.787528 -0.592825 -0.0548722 -0.805517 -0.590027 -0.472017 -0.384569 0.793289 -0.0527356 -0.961501 -0.269694 0.466361 -0.313591 -0.827145 0.427474 -0.391547 0.814836 0.519096 0.64791 -0.557451 0.766087 0.336891 -0.547371 0.430627 0.790445 0.43561 0.854393 -0.494339 0.16013 -0.207794 -0.0642242 -0.976062 -0.463608 -0.730057 -0.50208 0.997552 -0.0698615 -0.00316119 -0.709479 0.284947 0.644549 -0.9552 0.0397815 -0.293276 -0.245721 -0.245166 -0.937825 0.00299246 -0.999576 -0.0289729 -0.599707 -0.700697 0.386491 0.573514 0.254468 0.77867 0.995088 -0.0960281 0.0240492 -0.417795 0.139201 0.897814 0.0131384 0.296335 -0.954994 -0.230135 0.919523 -0.318615 -0.372309 0.132274 -0.918635 -0.142174 -0.78725 -0.600019 -0.850928 -0.48643 0.198261 -0.968641 -0.124242 -0.215173 -0.978227 -0.205325 -0.0302289 -0.116839 0.140206 -0.983204 -0.235532 -0.353217 0.905407 0.743075 -0.668604 0.0284447 0.108237 0.969521 -0.219802 0.999714 0.0221715 -0.00895743 -0.38983 0.809758 0.438548 -0.193336 0.709378 0.677794 0.924961 0.378013 0.0394126 -0.98084 0.187675 -0.052257 -0.276688 -0.386177 0.879949 0.0569942 0.596823 -0.800346 -0.87652 -0.304284 -0.372993 0.714713 0.49935 -0.48973 -0.953197 0.104655 0.28366 -0.689878 0.662186 -0.292537 -0.419447 0.134631 0.897741 0.380749 -0.525343 -0.76095 0.578059 -0.798319 0.168922 0.948293 -0.314547 -0.0424321 -0.142334 -0.874968 -0.462788 0.195637 0.034445 -0.980071 0.393085 0.00672507 -0.919477 0.113218 0.0167331 0.993429 -0.965426 0.13241 0.224545 0.180525 0.783949 0.593999 0.148541 0.87102 -0.468251 0.920785 0.323719 0.217625 -0.509021 0.667027 0.544033 0.318402 -0.0733486 -0.945114 -0.093989 0.470126 -0.877581 -0.432168 0.488059 0.758307 -0.806745 0.544654 -0.229161 0.956522 0.235939 -0.171459 -0.182492 -0.76978 -0.611666 0.808188 -0.010115 -0.588837 0.873155 -0.334002 0.355025 -0.751993 0.579531 -0.314086 -0.154687 -0.96839 -0.195686 0.482252 -0.640509 0.597647 0.0649671 -0.323887 0.943863 0.0307517 -0.998984 0.0329456 0.493863 -0.429891 0.75584 -0.926892 -0.348475 0.139418 0.578292 0.113356 -0.807916 -0.167146 0.848526 0.502061 0.174226 -0.475562 -0.862256 0.276611 -0.882847 0.379563 -0.928094 0.136791 -0.346309 0.143644 0.846992 -0.511832 0.901384 0.37076 -0.223702 -0.668721 -0.69732 -0.257985 -0.918943 -0.379285 -0.108107 -0.0594839 -0.545067 -0.83628 -0.987714 -0.151521 -0.0382342 -0.866221 -0.422402 0.266903 -0.783936 -0.309116 0.538416 -0.532995 0.842496 -0.0782085 0.344396 0.422619 -0.838323 0.520699 -0.251522 -0.815849 0.855129 -0.293301 0.427467 0.29847 -0.913897 -0.275149 -0.675243 -0.11919 0.727901 -0.643619 0.749134 0.156693 0.500621 -0.398114 0.768689 -0.13107 0.806259 0.57686 -0.995039 0.0994833 0.000702407 0.996665 -0.0705132 0.0410604 -0.116664 0.177264 0.977224 -0.939531 0.327364 0.100567 -0.176214 0.114211 0.977704 0.53037 0.334969 0.778784 -0.535421 -0.827568 0.168685 0.534645 -0.750753 -0.387976 -0.0899221 0.385521 0.918307 -0.6847 -0.68692 -0.243573 0.00235785 -0.996686 -0.0813131 -0.609891 0.30148 -0.7329 0.949108 0.247801 -0.194395 0.818328 0.0119921 0.574627 -0.255278 0.79607 0.54873 -0.180256 -0.850125 -0.494768 0.474729 -0.877777 -0.0643382 -0.132839 -0.516542 0.845895 0.370764 0.920068 -0.12653 0.0184044 -0.369334 -0.929115 0.466798 0.538109 0.701811 -0.763293 0.630471 -0.141032 0.783266 0.594696 -0.181196 0.671322 -0.627037 0.395159 -0.825514 -0.513887 0.233337 -0.53275 0.68145 -0.501799 -0.423412 0.242626 0.872843 0.503634 0.854832 0.124957 0.803935 -0.505895 -0.312664 0.603726 0.259584 0.753745 -0.522958 -0.276469 -0.806275 0.481429 -0.686762 0.544596 -0.288093 0.628792 0.722235 -0.853389 0.118367 0.507657 0.257932 0.668879 0.697189 0.215822 -0.450985 0.866045 -0.898024 -0.416938 0.140414 0.986673 0.0416862 0.157285 0.823207 -0.332331 0.460311 -0.0438464 -0.839648 0.541358 -0.565994 0.612442 -0.551874 0.489308 -0.64651 0.585323 -0.812507 -0.531432 -0.23961 0.818058 0.54043 -0.196763 -0.64807 0.31621 0.692832 0.353688 -0.906519 0.230494 -0.0626747 0.0434031 -0.99709 -0.756276 0.624585 -0.194784 0.361925 -0.553518 0.750085 -0.248882 0.820857 0.514054 0.340774 -0.575351 -0.743535 0.623015 -0.452604 0.637968 -0.853754 -0.402701 0.330055 0.491234 -0.67598 0.549309 0.645534 -0.572436 -0.505572 0.718008 0.641795 -0.269376 0.636029 -0.718003 0.282736 0.601803 0.429465 -0.673345 -0.919414 -0.264973 0.290633 -0.588776 0.643404 -0.489259 0.484298 -0.041747 0.873906 0.108901 -0.87595 0.469948 -0.375397 -0.834203 -0.403958 -0.629905 -0.394698 -0.668904 0.19239 0.97492 -0.111881 -0.46192 0.210798 -0.861507 0.373823 -0.788451 0.488469 0.938713 -0.281338 0.199165 0.684635 -0.184399 -0.705175 -0.643895 0.70037 0.308027 0.399815 -0.0744427 0.913568 0.949812 -0.293714 0.10765 -0.292017 0.846466 -0.445221 -0.915863 -0.33677 0.218588 0.893318 0.217737 0.393159 -0.601087 0.167967 -0.781333 0.305761 -0.213866 -0.927778 0.275367 -0.543845 0.792721 -0.20777 -0.445764 0.870705 -0.877849 -0.477427 -0.0380186 0.633028 0.681685 0.366854 0.796907 0.391904 -0.459729 -0.0616946 0.524122 0.849406 -0.562414 0.816594 0.129868 0.0471445 -0.944633 -0.324725 -0.598789 0.0817398 -0.796725 -0.90788 -0.196082 -0.370549 0.438899 0.671692 0.596822 -0.757772 0.639632 -0.129045 -0.806931 0.103049 0.581587 0.473795 0.416803 -0.775753 -0.502429 0.775005 -0.383317 -0.926278 -0.303299 0.22365 0.612279 0.572392 0.54542 0.877515 0.395013 0.271906 -0.480336 0.873576 -0.0783761 -0.0107935 0.986884 0.161072 -0.549903 0.596108 -0.585031 0.423833 0.897273 0.123557 -0.520799 0.812978 0.260452 0.913758 -0.00897976 -0.40616 -0.799749 -0.351715 -0.486516 -0.192926 0.744766 0.638829 0.49929 0.493601 0.712087 -0.382748 0.825359 -0.415074 -0.260364 -0.232639 -0.937064 -0.339608 -0.924922 -0.170839 0.261505 0.697475 -0.667191 -0.518992 0.4501 -0.726675 -0.874398 -0.475276 0.0976721 0.692364 0.00862528 -0.721497 -0.771879 0.605054 0.195221 -0.499392 -0.088777 0.861816 0.272487 -0.693831 0.666595 0.493323 -0.54414 0.678634 0.304621 0.910069 0.281035 -0.65194