# vtk DataFile Version 4.0
Generated by libgran
ASCII
DATASET POLYDATA
POINTS 1686 FLOAT
-33.0791 1.89657 6.65239 -31.7558 1.0195 7.74807 -33.8912 2.05951 5.07175 -32.6862 2.89629 6.09599 -34.162 -1.10941 8.01621 -34.4442 2.66903 4.06714 -31.277 -0.123569 12.4425 -31.0744 -1.81654 12.9006 -31.8858 0.561691 11.4792 -31.9994 -0.510508 10.0512 -31.5053 1.15359 10.0908 -30.9612 1.29418 8.90637 -30.547 -3.47001 15.3833 -29.7608 -3.08921 14.3809 -29.818 -1.9447 14.4198 -29.2004 -0.358865 13.9982 -28.5465 -0.0952528 14.7074 -28.5971 0.514402 13.3207 -32.2318 -4.14798 13.4509 -34.1452 -4.90391 14.9493 -33.1228 -4.32145 14.3299 -33.2291 -4.71576 16.0304 -34.971 -5.37243 14.0115 -32.5196 -5.06222 16.9496 -32.817 -3.7552 17.5325 -33.1116 -3.35762 18.6326 -31.8205 -3.2802 18.9091 -31.3577 -4.782 21.5833 -32.5326 -4.00009 22.2131 -31.7578 -3.90612 20.5331 -31.1261 -5.98718 22.0951 -31.9893 -7.55875 21.8413 -32.2942 -3.95676 23.8793 -30.9849 -4.27514 19.2136 -31.321 -8.22539 19.8725 -31.9319 -9.5043 19.6971 -30.0125 -8.43775 19.7692 -28.9057 -8.41059 19.7065 -28.5956 -7.0638 20.8752 -29.3857 -6.47376 22.3143 -28.443 -5.59556 20.9198 -31.0621 -10.4568 20.7521 -22.6941 -12.4175 23.3761 -23.6235 -12.027 22.5091 -24.8837 -12.9698 22.4913 -22.3036 -11.529 25.1138 -23.6863 -11.4972 25.5483 -26.3063 -13.8995 22.6672 -28.1647 -11.6887 19.8598 -27.1531 -11.2044 19.0148 -27.6763 -12.7664 20.4665 -29.1946 -12.5008 20.8041 -26.9237 -13.6732 21.5678 -30.092 -11.4489 21.5161 -26.1879 -12.5406 18.1669 -26.1307 -13.8849 17.1318 -25.2558 -15.9849 17.9808 -24.921 -15.9516 16.6942 -26.1169 -15.1553 16.712 -23.959 -15.3042 18.8992 -23.1025 -15.5377 16.3013 -22.4004 -15.0854 19.353 -22.3827 -16.1284 19.795 -22.3636 -14.269 12.4064 -23.3944 -14.739 12.1943 -23.6577 -13.1584 12.6996 -21.0977 -14.2799 12.8129 -20.9949 -15.2019 11.4411 -20.9855 -13.8182 14.6158 -21.732 -14.3763 15.9503 -36.518 16.1112 3.86045 -36.9843 15.6308 1.99251 -36.9997 14.6454 1.8227 -35.3894 16.572 4.8893 -34.7398 16.3958 5.75599 -33.7819 16.6636 5.65266 -34.075 16.1581 6.46422 -40.2074 15.2068 1.78632 -41.079 15.953 1.11575 -39.2067 16.5032 1.23488 -39.4365 14.814 2.4843 -40.4822 13.4463 2.015 -41.234 12.4306 2.49327 -41.9184 11.3534 3.26114 -46.2187 12.0196 3.18432 -46.5321 11.0785 2.55674 -46.9492 13.3259 2.38512 -45.4505 13.5613 4.19818 -42.8696 10.8627 3.28315 -42.0405 9.79463 2.40365 -42.5377 10.0307 1.19706 -42.3267 9.06375 0.625347 -42.0602 8.32407 1.9983 -42.5578 11.4824 0.202198 -43.9562 10.5304 0.830287 -42.8099 11.8369 -1.06441 -42.2266 6.87548 1.59711 -42.3605 6.89486 3.21199 -44.2914 8.26698 -5.43503 -43.5965 7.96316 -6.52715 -44.5835 6.5287 -6.09698 -45.0141 9.77907 -7.0404 -45.8247 9.21828 -7.45517 -45.8571 10.0384 -5.74366 -47.0642 8.83881 -7.96118 -46.6677 9.47764 -6.15844 -45.5295 5.0481 -5.67694 -45.2157 10.3958 -3.70098 -46.0602 10.3698 -4.74145 -45.1695 10.4064 -2.47472 -45.3996 10.2564 -1.38432 -46.057 9.95638 -0.528047 -45.1244 9.8037 -0.0340949 -47.1214 11.3227 -0.654687 -45.2896 11.1258 1.07808 -43.4387 4.45782 -8.46827 -42.4102 4.56873 -9.82992 -42.6828 3.42867 -8.25049 -43.6516 5.70978 -8.074 -44.0458 6.93671 -8.45278 -45.6594 6.88022 -8.11472 -43.056 1.90502 -7.61153 -46.8143 6.43934 -8.46456 -45.2833 1.58995 -4.54964 -44.6469 2.7527 -4.82468 -45.815 3.46143 -4.94954 -43.4962 3.83783 -5.34753 -25.2077 13.5422 19.5869 -25.7336 14.3791 20.4763 -24.3137 14.826 19.8846 -26.5114 12.6126 18.6301 -28.2259 12.7109 20.1377 -28.6685 10.2597 18.1904 -29.1864 11.895 17.4441 -29.1896 9.10421 18.0058 -28.465 8.37985 18.3614 -28.52 11.9878 16.7042 -30.6983 8.41183 18.441 -30.0366 9.16483 16.8057 -30.8817 7.93658 20.0495 -26.2875 4.42949 12.8985 -26.0943 3.32852 12.6902 -26.6169 5.55719 13.5213 -28.1527 4.84949 13.3618 -27.5316 2.52789 13.4031 -27.2862 2.26128 11.9452 -27.9127 1.79933 14.7388 -26.9485 1.52009 10.7665 -26.614 1.73966 9.76976 -29.1389 8.94686 15.5981 -30.4006 8.89225 15.182 -28.0158 9.21045 14.8109 -30.4931 7.45986 14.1237 -31.6326 8.85849 14.2011 -31.0222 6.22505 13.9925 -29.6319 5.74762 13.655 -33.6011 7.05538 5.68924 -34.7785 6.66282 5.2121 -32.9381 7.88177 6.21479 -32.5929 6.22908 6.78932 -36.4413 6.26156 6.11608 -34.4797 4.5482 6.96146 -37.6049 6.8988 5.82456 -37.649 6.87972 4.31053 -40.8748 5.88672 5.03364 -39.3466 5.31946 4.87368 -42.0893 6.37963 4.81677 -42.7189 5.78801 3.19556 -38.3527 6.61059 3.59415 -38.624 4.58165 6.02941 -32.3262 5.95968 11.8297 -31.8072 8.36656 11.0397 -32.9582 8.53664 12.3481 -33.0351 8.78144 13.4252 -33.7556 7.70218 13.8387 -32.0724 10.3162 13.6613 -34.1035 6.33781 14.3916 -34.6687 3.74874 9.5194 -34.1147 3.53673 10.7094 -33.9148 3.98891 7.69752 -33.3684 3.72207 11.8759 -25.6815 23.2229 28.7617 -26.0627 21.9433 29.2941 -25.6755 22.7922 30.3415 -25.441 23.3793 27.4634 -25.8694 24.8436 28.0593 -26.6642 26.0045 28.1173 -22.8885 23.5226 28.6665 -22.5624 23.8082 30.9715 -23.4219 24.4203 32.1371 -22.2862 23.5636 29.694 -21.8419 23.247 28.7267 -23.6853 25.3473 29.2013 -23.394 24.5812 33.3635 -25.4771 27.4875 33.4997 -25.1632 28.4694 34.3424 -26.1947 29.2949 33.5929 -25.7918 26.8215 32.6712 -24.8158 26.1475 32.4111 -23.6241 29.0734 35.4051 -25.5151 25.2451 31.7607 -20.898 26.03 35.8195 -20.9742 24.7474 36.162 -20.8112 27.1212 35.6951 -19.8578 27.8668 36.4969 -20.8901 28.6136 35.9255 -18.36 27.6714 37.3488 -18.5072 28.8564 36.8204 -21.8993 29.5022 35.6285 -19.9504 29.6624 35.3393 -27.7349 23.6707 33.5561 -28.2777 25.9028 33.906 -30.3071 24.7811 36.0047 -30.1525 23.6503 35.1563 -29.734 22.9811 33.4257 -26.422 23.4598 33.4477 -31.405 20.6703 31.5336 -32.0255 21.5162 32.9838 -30.1399 20.4835 31.1649 -29.2724 20.1945 30.7602 -32.1637 22.5646 34.2368 -33.0447 22.1135 34.094 -34.8398 22.5407 33.9067 -35.5911 22.4152 32.6108 -35.1692 21.5504 32.151 -36.6194 23.757 31.791 -37.0969 23.5772 33.4349 -37.5717 24.2473 32.4274 -36.234 21.6488 33.9717 -37.1723 24.6039 35.0085 -37.3747 25.5911 33.0926 -41.1034 25.1217 36.3536 -40.5609 26.2247 35.8464 -39.5919 25.4642 35.3746 -38.1936 25.4585 35.0855 -41.0698 25.3901 34.169 -37.0815 25.6895 34.7135 -34.2424 7.4521 23.5128 -34.0622 6.33094 24.2036 -35.5703 7.33413 24.5032 -33.051 7.57779 22.3794 -34.2986 8.71508 22.7725 -31.6546 6.56762 21.6667 -30.7506 6.08317 20.6383 -31.3136 5.38553 19.9272 -29.7347 5.85634 19.6232 -31.8723 4.38597 19.2514 -31.575 3.76333 20.5106 -27.8569 4.57126 18.5463 -27.6589 5.65389 18.2792 -39.0379 7.6182 24.1915 -39.3066 6.73611 25.1495 -40.7692 6.23057 24.6499 -39.4001 8.98478 24.6801 -40.7607 8.59429 24.2809 -37.5463 5.60195 21.8708 -37.7467 7.06126 22.77 -36.7432 5.24002 22.5678 -35.959 4.86406 23.0616 -34.5502 5.52444 22.0449 -34.9095 4.29155 23.2854 -29.6023 15.671 22.9989 -30.6369 15.6361 23.8335 -29.3205 15.4143 24.8583 -28.5979 15.2871 22.1723 -29.5801 14.8804 21.2761 -31.6441 16.3592 24.1742 -31.1724 17.3867 25.5226 -30.0914 18.1209 26.9522 -32.4647 9.86279 21.0342 -31.3215 9.7523 21.6591 -30.9504 10.9002 20.7371 -33.5709 10.5969 21.1115 -34.1981 9.50012 21.9047 -29.7004 11.2442 21.315 -29.7305 12.2435 21.292 -28.9923 19.5204 27.3159 -28.9945 17.9491 27.1111 -29.7656 19.6982 29.5028 -31.1718 19.6622 28.4325 -28.6423 16.441 27.3149 -27.8889 15.3805 28.1991 -30.925 19.8417 26.0647 -31.874 19.2483 27.1276 -30.816 21.1658 26.1189 -32.3376 21.8643 25.7038 -33.9541 21.6855 25.7667 -33.8611 22.9145 23.9821 -6.24886 25.1888 40.7892 -5.28336 25.0928 41.0313 -7.52634 24.8156 40.7223 -5.74115 24.3748 40.5069 -8.35503 26.0684 41.5986 -9.17483 24.623 41.0239 -9.17304 25.7212 41.14 -9.18205 26.6292 41.5589 -5.11824 23.3513 40.898 -3.93905 23.9012 40.352 -4.83238 21.6496 41.1234 -9.97211 23.6958 39.9478 -6.45118 20.0891 42.4115 -6.32277 20.9234 41.1262 -7.45766 19.0781 42.6418 -8.05853 18.184 42.9509 -4.45832 21.0288 42.1545 -1.33404 25.0807 41.5619 -2.31275 25.2356 40.6752 -2.63449 24.0386 40.6734 -0.064173 26.4573 41.4367 -2.05229 26.8096 40.1568 -2.85368 22.7998 40.5988 -2.04106 28.6182 40.2987 0.86586 30.7141 40.8327 1.41784 29.5119 41.8081 -1.85473 30.2155 39.7972 2.47094 28.9058 41.2295 -2.91268 29.8159 41.0759 -21.3163 33.073 42.6284 -20.0515 32.6916 42.4769 -21.512 33.3426 44.2978 -22.5431 32.4585 42.9412 -18.9539 31.9551 45.1506 -19.5011 32.513 46.5962 -18.245 31.1523 43.7879 -15.7708 29.9986 42.2267 -16.6564 29.9816 43.2183 -14.8808 28.6063 42.3124 -17.7267 29.9199 43.322 -17.7149 28.9023 44.419 -16.7779 28.3307 43.9895 -13.7783 28.6557 43.2121 -14.6526 28.2697 43.8355 -17.7174 28.2741 45.8825 -11.9154 25.2327 44.541 -13.176 25.62 44.726 -11.6643 25.5887 43.6409 -10.9518 25.3107 44.2852 -13.5415 26.7101 45.6241 -14.0809 25.7935 46.4872 -14.12 28.1391 45.2244 -10.8386 26.6498 43.2643 -15.6641 28.0111 44.521 -10.3204 28.3913 40.9431 -9.75267 27.1929 40.7702 -11.056 28.1558 42.2948 -11.1541 29.1504 42.3276 -11.8885 28.4852 40.8172 -11.0746 28.6275 43.1763 -20.3904 35.9814 39.5643 -20.4047 36.6027 37.7626 -19.5938 36.6688 40.3781 -19.6714 38.2277 39.9747 -19.3924 38.1202 40.9289 -20.0187 38.8558 40.671 -20.1294 39.9027 40.0157 -20.1016 36.0953 36.8217 -21.1006 37.4498 36.9909 -19.0618 39.4715 41.4927 -20.7038 42.4173 43.5858 -22.3106 41.7879 42.9582 -22.6197 42.4802 43.8434 -22.3539 40.7909 41.7273 -23.7828 40.8358 42.8217 -20.8722 40.6186 40.6611 -19.1726 40.5183 40.8374 -23.015 44.5291 44.7893 -21.9546 45.0662 43.4224 -22.4292 44.4214 45.9782 -23.3943 43.2793 44.9075 -21.8352 44.9767 42.1649 -20.8489 46.0227 42.8854 -22.2424 42.275 47.5624 -23.0968 41.7385 50.7698 -22.6527 42.8449 50.1808 -23.8923 43.5037 50.6618 -21.6268 42.5764 49.0404 -20.2893 43.7282 48.7424 -24.9374 43.9809 50.3087 -16.7733 29.1242 39.7975 -15.9842 28.7001 38.815 -16.1871 30.018 38.3864 -15.7207 27.1836 39.1024 -17.2357 30.0993 37.2998 -14.8146 26.9 40.4615 -13.372 27.7704 40.6295 -18.5617 29.8059 36.1945 -18.7891 30.7493 34.8551 -18.0586 30.0712 34.9356 -17.875 30.9553 34.5059 -19.2088 32.0359 36.3648 -18.8674 31.6591 37.4977 -21.8143 30.562 37.5369 -22.2558 31.5398 36.2675 -22.6342 34.7078 41.368 -24.1782 33.8971 41.4638 -21.8647 33.8063 40.7653 -22.137 33.4819 39.5561 -25.12 32.2213 41.
[...]
POINT_DATA 1686
FIELD FieldData 1
normals 3 1686 double
-0.471375 0.52122 -0.711432 0.851895 -0.355849 0.384249 -0.340757 -0.35828 -0.869207 0.864294 0.4785 0.155029 -0.899329 -0.394304 -0.18903 -0.2122 0.9678 -0.135401 -0.50248 0.864462 0.0147933 -0.299966 -0.828507 0.472861 -0.106349 -0.179203 -0.978047 -0.0072757 -0.892996 -0.450005 0.4868 0.771106 -0.410391 0.0573162 -0.630524 -0.774051 -0.26029 -0.906094 0.333531 0.52591 -0.525302 -0.668936 0.468658 0.619208 -0.630033 0.148924 0.966631 0.208436 -0.504961 0.70302 -0.500777 0.454409 -0.0933649 -0.885887 -0.857342 0.496174 0.137028 -0.988629 0.0871898 -0.122516 0.0336731 0.669646 -0.741917 -0.0726278 0.27534 0.9586 0.162821 -0.555713 -0.815275 0.782186 -0.6218 -0.0393673 0.484801 0.68522 0.543545 -0.779412 -0.287642 0.556579 0.511697 -0.210223 0.83305 0.849108 -0.460198 0.259295 -0.32583 0.321717 0.889007 0.449014 0.41569 -0.790942 -0.617459 -0.744978 0.252493 -0.245764 -0.826591 -0.506308 0.564226 -0.278388 0.77727 0.323859 -0.784718 -0.528519 0.774575 0.355659 0.523011 0.163632 -0.923258 0.34759 0.533938 -0.568028 -0.626302 0.57281 0.595193 0.56359 -0.262655 0.751598 0.605073 -0.527521 -0.161556 0.834039 0.4152 0.716636 -0.560395 0.706223 -0.0292045 0.707387 -0.342003 0.907394 -0.244274 -0.587395 -0.51689 -0.62273 -0.672839 -0.425892 0.6049 0.798849 0.596176 0.0800865 -0.583811 0.628004 0.514564 -0.749775 -0.503808 -0.42897 -0.396479 -0.901078 0.175675 0.615091 -0.416748 -0.669316 0.884894 -0.17667 0.430987 -0.633449 0.0890098 0.768648 -0.132364 -0.730104 0.670394 -0.263882 0.962889 -0.0566596 0.350168 -0.919509 -0.178567 -0.292951 -0.424772 -0.856591 0.554523 0.0161329 0.832012 0.889315 0.0494011 -0.454619 -0.306658 0.845672 -0.436806 0.742265 0.66452 0.0863457 0.929147 0.364526 0.0617009 0.816278 -0.445718 0.367459 0.798546 0.597302 -0.0745348 0.848637 -0.233825 -0.47449 -0.182163 -0.703856 -0.686589 -0.445443 0.876759 -0.181314 0.417322 0.222942 0.880988 0.520055 -0.699037 -0.490806 -0.30514 0.23873 0.921899 -0.441369 -0.796832 0.412616 0.185947 0.131538 0.973715 -0.280394 -0.348916 -0.894224 -0.264942 0.636421 -0.724413 0.942648 0.329203 0.0551364 -0.293127 -0.505424 0.811556 0.664791 -0.237625 0.708228 0.957918 0.267799 -0.10333 -0.117837 -0.826711 0.550148 -0.989449 -0.0805675 -0.120412 0.882821 0.469708 -0.00128486 0.888754 0.433891 0.147836 -0.156992 -0.933819 -0.321459 -0.59476 -0.0818277 0.799728 -0.0896674 -0.995462 -0.0318563 -0.510357 0.857361 0.0668345 -0.823738 -0.083779 -0.560747 -0.220063 0.448947 -0.866036 -0.476688 0.879033 0.00836709 0.861527 -0.504846 -0.0538627 0.0324935 0.563259 0.825642 -0.464648 0.799365 -0.380942 -0.253663 -0.167622 -0.952658 0.0128722 -0.907298 0.420292 0.444556 0.65228 -0.613922 -0.953914 -0.299744 0.0141668 -0.696646 -0.297793 -0.65269 -0.179334 -0.541298 -0.821484 -0.31323 -0.521919 0.793402 -0.164552 0.871308 0.462325 0.530398 0.567488 -0.62979 -0.456631 -0.866972 -0.199618 -0.132582 0.67323 0.72745 -0.943181 0.112436 0.312678 -0.710372 -0.413864 0.569288 -0.296281 -0.491902 -0.818688 0.10023 0.146929 0.984056 -0.489386 -0.613624 0.61965 0.337291 -0.719121 0.607536 -0.507219 -0.745184 -0.432932 -0.291071 0.729701 0.61872 0.0609752 -0.879659 0.471679 -0.718431 0.579605 0.384597 0.214225 0.426918 0.878549 -0.345921 0.78675 -0.511237 -0.379457 0.895227 0.233625 -0.719054 0.406377 0.563755 0.309484 0.517286 -0.797894 0.0368521 -0.622775 0.781533 0.506219 0.845586 -0.169488 -0.900429 0.381345 -0.209294 -0.713236 -0.437831 0.547355 -0.409996 -0.900875 -0.142573 -0.441629 -0.00305497 -0.897192 -0.327837 0.898427 -0.29215 0.964282 0.264326 0.0171077 -0.203877 0.973049 -0.107752 0.18637 0.820803 -0.539952 -0.413614 -0.527592 -0.742004 -0.93946 0.30933 0.14741 0.480435 0.756184 -0.444262 -0.890082 -0.401999 -0.214829 -0.789265 -0.132586 -0.599567 0.414038 -0.907699 0.0682257 -0.103864 0.727613 -0.67808 -0.935221 -0.247804 -0.252891 -0.210571 -0.972163 0.102758 -0.770183 0.634817 0.0618426 -0.573403 -0.444571 0.688162 0.0882998 0.308433 -0.947139 0.390003 -0.0306792 0.920302 -0.887328 0.38272 0.257243 -0.694066 -0.718246 0.0489435 0.558005 0.744988 0.365545 -0.977826 0.03728 0.206073 -0.743236 -0.0823886 0.663937 -0.497852 -0.348999 -0.793942 0.362132 -0.64617 0.671807 0.835574 -0.392187 -0.384715 -0.501137 0.611755 -0.61206 0.809349 -0.526406 -0.260482 -0.452321 -0.581018 -0.676627 0.313807 0.789993 -0.526723 0.359858 -0.851376 -0.381655 -0.779706 0.547258 -0.304247 -0.888969 -0.383431 0.250431 0.501342 -0.860856 -0.0870792 0.398291 -0.0555526 0.915575 -0.779085 -0.448107 0.438436 0.264654 0.881951 -0.390027 0.609847 -0.770743 0.184506 -0.883783 0.046849 0.465546 0.932053 -0.323253 -0.163658 -0.279799 0.590388 -0.75707 0.235714 -0.609467 -0.75696 -0.630033 0.499613 0.594512 0.898101 -0.0676465 0.434556 -0.584483 -0.00669683 -0.811379 -0.0451193 -0.584924 -0.809832 0.939429 -0.340332 -0.040577 -0.175481 -0.670159 0.721175 0.389518 -0.760592 0.519399 -0.451457 0.549592 0.702947 -0.699551 -0.37951 0.605476 0.622732 0.624309 0.471638 -0.0978077 -0.454947 0.885131 0.339894 0.910475 -0.2356 -0.250066 -0.90943 -0.33227 0.386792 0.00414452 -0.922158 0.94077 -0.207863 0.267853 0.367143 0.236032 -0.899719 -0.19443 0.393205 0.898658 -0.373198 0.638462 -0.673119 -0.754435 -0.641104 -0.140759 -0.367274 0.207766 0.906611 0.613705 -0.482097 -0.625259 0.18523 0.982258 -0.0292937 -0.980039 0.178646 0.0872329 0.7188 0.651072 0.243787 0.159707 -0.854795 -0.493781 -0.699783 -0.242768 0.671839 0.116486 0.610132 -0.78369 0.327818 -0.926731 -0.183591 -0.300687 -0.51211 -0.804569 0.727716 0.403657 0.554518 0.471446 -0.849113 -0.238213 0.78542 0.132737 0.604563 -0.246143 0.958323 -0.145021 -0.786154 0.183119 -0.590279 0.189874 -0.490856 -0.850299 0.753674 0.471298 0.458098 -0.88917 -0.411611 0.199885 0.127631 0.444996 -0.886391 0.0514346 -0.837606 -0.543849 -0.0408635 0.646236 0.762042 0.994256 0.0993744 0.0397554 -0.0380377 0.846086 -0.531688 0.503565 -0.294801 0.812105 0.356382 0.8902 0.283788 -0.971135 0.0425198 0.23471 0.977704 0.202794 -0.0544868 0.542677 -0.491475 -0.681142 0.856028 -0.134963 -0.499 0.164247 -0.976495 0.13957 -0.00960699 -0.154277 -0.987981 0.428088 -0.514963 -0.742667 0.770208 0.280623 0.57274 0.451419 -0.759533 -0.468327 -0.169116 0.0864008 0.981802 0.813636 0.572775 0.0996226 0.0538916 -0.861818 -0.504347 0.0309158 0.962019 0.271227 -0.850023 0.510837 0.128473 -0.945141 -0.0836121 -0.315782 -0.193847 0.0418361 0.980139 0.228015 -0.822953 0.520343 -0.583684 -0.438063 0.683677 0.106247 0.258215 0.960227 -0.368603 0.928385 -0.0472543 -0.449061 -0.808303 0.380775 -0.1817 0.768576 0.613414 0.565628 0.41535 0.712425 -0.952671 -0.262332 0.153621 -0.410244 0.84064 -0.353588 0.558775 0.0801701 -0.825435 0.839572 -0.0859447 0.536406 -0.348062 -0.814493 0.46417 0.272479 0.316948 -0.90846 0.647647 0.61417 -0.450941 0.827893 -0.506994 0.239894 -0.680246 0.496201 0.539491 0.543767 -0.488485 -0.682422 -0.703799 0.648805 -0.289344 0.852599 -0.521683 -0.0303575 0.0514653 0.0372331 -0.99798 -0.614543 -0.734875 0.286872 0.964353 -0.264066 -0.0171285 0.0558493 -0.264689 -0.962715 0.353184 -0.887323 0.29651 -0.393099 0.469126 -0.790819 0.591121 0.613498 0.523638 0.393208 -0.134109 0.909616 -0.661955 -0.747984 0.0483334 -0.800638 0.24244 -0.547907 -0.841791 -0.297313 0.450547 -0.518874 -0.0931762 -0.849758 0.942888 0.333006 -0.00835115 0.37648 -0.173807 0.909975 -0.139721 -0.694936 0.705367 0.923858 0.318976 -0.211522 0.484925 0.341412 -0.805162 0.125688 -0.891477 0.435283 0.057542 -0.10842 -0.992438 -0.97702 -0.143267 -0.157817 0.339338 -0.365054 0.866941 0.946895 -0.275471 0.165848 -0.0353915 -0.682133 -0.730371 -0.0301758 0.86634 0.498542 0.501851 0.161126 0.849814 0.57914 0.573097 0.57979 -0.929228 -0.226439 0.291994 0.213974 -0.336935 0.916892 0.585088 0.810954 -0.00511177 -0.176957 0.960531 -0.214632 -0.80422 -0.136235 0.578508 0.664897 -0.466913 0.583013 0.634764 0.532369 0.560052 0.519923 0.82642 -0.216127 0.517714 -0.744881 -0.420862 0.547098 -0.365542 0.753036 -0.859092 -0.401591 -0.317311 -0.165432 -0.763223 0.624598 0.918783 -0.297314 0.259695 0.792223 0.605557 -0.0753926 -0.156836 0.01222 0.987549 -0.683269 0.71856 0.129674 -0.838309 -0.0200713 -0.544826 -0.778135 -0.158741 0.607707 -0.433048 -0.7779 -0.455347 -0.457797 -0.717949 -0.524377 0.507708 -0.813953 -0.282336 -0.819683 0.344776 0.457438 0.965505 -0.0960042 0.242041 -0.00900884 0.908005 0.418863 -0.828803 -0.537413 -0.155797 -0.82702 0.560769 -0.0397058 -0.818011 -0.347235 -0.458569 -0.342589 -0.927581 0.149084 0.836604 -0.377592 -0.396885 0.628451 -0.774101 0.0762653 0.0315254 -0.389757 -0.920378 -0.0105003 -0.954035 0.299511 0.117915 -0.119707 -0.985782 -0.995975 -0.0569726 -0.069199 0.395097 -0.837122 0.378318 -0.254395 0.15337 0.954862 0.832488 0.527238 0.170244 -0.14622 0.682135 -0.716458 -0.467954 -0.514895 -0.718263 0.437383 0.849356 -0.29545 0.406685 0.891853 0.198006 0.248762 -0.723811 0.643596 -0.395456 0.916773 -0.0560525 -0.21472 0.261437 -0.941035 0.33726 -0.940787 0.0342938 -0.581784 -0.680505 0.445466 0.71584 0.334701 -0.61282 -0.476163 0.280948 0.833269 -0.603613 -0.000609515 0.797277 0.661138 -0.382026 0.645719 0.407888 0.270251 0.872119 -0.623199 -0.613913 -0.484494 0.808384 -0.263976 -0.526149 0.261215 0.293975 0.919427 -0.0994758 -0.538838 -0.836516 0.433211 -0.738142 -0.517179 -0.452438 -0.755145 0.4744 0.456764 -0.654147 0.602875 -0.61782 0.693494 -0.370627 -0.606028 -0.324155 0.726398 0.33095 -0.895755 0.296809 0.645701 0.703523 0.296861 -0.228602 0.317605 0.920254 0.603544 -0.304003 0.7371 0.712487 -0.277997 0.644267 -0.548166 0.109334 0.829193 0.963563 0.0780355 -0.255845 0.251076 0.356032 -0.900112 0.182718 0.980748 0.0689057 -0.35669 0.0641621 0.932017 -0.761231 0.448251 -0.468613 -0.137879 0.983051 -0.120829 -0.782862 -0.576215 -0.234741 -0.815094 0.287428 0.502999 -0.247394 -0.910946 0.330112 0.0794826 -0.522913 0.848672 -0.018653 0.471717 0.881553 -0.753048 -0.193516 -0.628865 -0.0981356 0.99463 0.0328809 0.247891 -0.1359 0.959209 0.233655 0.48536 -0.842515 0.548734 0.82325 -0.145431 -0.626313 0.735667 -0.257929 -0.347288 0.628122 0.696314 0.279024 -0.107544 0.954243 0.168247 0.939333 0.298911 0.0694562 -0.992722 -0.0983795 -0.929587 0.361722 0.0708845 0.677821 0.723186 -0.132516 0.992818 0.0280115 0.116309 -0.613938 -0.601399 -0.511273 -0.923009 0.0909194 0.373882 0.570619 -0.395624 -0.719636 -0.858224 -0.350722 0.37476 0.911044 0.223397 -0.346544 0.788599 -0.323688 0.522817 -0.230934 -0.541527 0.808343 0.829455 -0.00437631 -0.558556 0.816703 0.43387 0.380465 -0.148373 -0.708227 -0.690217 -0.710031 -0.0851901 -0.698998 0.276231 0.96085 0.0215289 0.728299 -0.237042 0.642956 0.469096 -0.836361 0.283634 0.913178 0.269962 -0.305331 -0.326412 0.928775 0.175591 0.112704 -0.538453 -0.835084 -0.473361 0.132908 -0.870784 -0.718696 -0.451611 -0.528701 0.719644 0.459933 -0.520167 0.0694401 -0.883969 -0.462361 -0.133488 0.433938 -0.890999 0.194078 -0.632582 0.749782 -0.915083 -0.352668 -0.195571 0.712035 0.349034 0.609246 0.730485 0.521302 -0.441175 -0.410971 0.0593044 -0.909717 0.183573 0.884105 -0.429721 0.914123 0.206009 -0.349198 0.73055 -0.678095 0.0805229 0.806353 0.26864 0.526903 -0.464914 -0.645466 0.605994 -0.738011 0.518157 -0.432266 0.296442 0.459678 -0.837149 0.977429 -0.00512007 -0.2112 -0.566577 -0.815877 -0.115477 -0.207934 -0.89638 -0.391493 -0.0643718 0.57192 -0.81778 -0.37528 -0.859859 0.346132 -0.974547 -0.224008 -0.00882003 -0.797306 0.555874 -0.235177 -0.318683 -0.43781 -0.840692 -0.0605427 -0.810125 0.583122 -0.503663 -0.0750473 0.860635 0.358524 -0.925717 0.120454 0.675833 0.0504064 -0.735329 0.0561041 -0.732356 -0.678607 -0.619729 -0.782764 0.0567215 -0.556817 0.830635 -0.000674348 -0.651923 -0.311021 0.691565 0.0733582 0.981764 0.175379 0.624127 0.282771 0.728358 0.258621 -0.647962 0.716422 -0.365506 -0.930732 -0.011936 0.124262 -0.977856 -0.168395 0.951811 0.270146 -0.145178 0.95978 -0.273198 0.0646948 0.371468 0.916402 0.149057 0.124392 -0.0381153 0.991501 0.775112 0.106333 -0.622811 0.608794 -0.26663 0.74718 0.125069 0.21724 -0.968073 -0.541294 0.253208 0.801802 0.617241 0.664087 0.421902 -0.296443 -0.495616 0.816386 -0.929667 0.367497 0.0257828 0.99408 -0.00616115 -0.108474 -0.00639499 0.596345 0.802703 0.0952348 0.989218 -0.111257 -0.346736 -0.897673 -0.271951 0.10163 0.392875 -0.913959 -0.181868 -0.0786966 0.980169 -0.0520367 -0.244687 -0.968205 -0.919645 -0.33196 -0.209895 0.0539304 0.127324 -0.990394 -0.438791 0.896445 -0.0620347 -0.131966 0.549608 0.824934 0.945071 -0.310183 -0.103091 0.216092 -0.35242 0.910552 -0.18185 0.650386 -0.737515 -0.849782 -0.420722 -0.31759 0.926037 0.128429 -0.35491 0.0322987 -0.0011622 0.999478 -0.187283 0.859657 0.475306 0.147394 -0.166292 0.974998 0.127072 -0.737513 0.66327 0.695778 0.0291606 -0.717664 -0.214447 0.6674 -0.713155 -0.743896 -0.517315 -0.423089 0.953826 0.0856003 0.287904 0.270491 -0.219655 -0.937329 -0.334927 -0.199812 0.920814 0.199898 -0.0701673 0.977301 0.460838 -0.183522 -0.868302 0.272251 -0.953873 -0.126515 0.891738 0.239875 -0.383748 0.47164 0.671551 0.571467 0.809217 -0.159554 -0.565429 0.83117 0.534112 0.154534 0.0219531 0.693666 0.719962 0.770495 -0.497442 -0.398608 -0.94793 -0.29765 0.113283 0.0977133 -0.993198 0.0633214 -0.0669419 0.233313 -0.970095 -0.952803 0.273145 -0.132505 -0.734688 -0.585852 -0.342069 0.230647 0.352897 0.906789 0.0367269 -0.990688 0.131103 0.878688 0.394817 0.268379 -0.278716 0.943423 -0.179638 0.858683 0.361989 0.362806 0.398561 -0.707985 -0.583015 0.754738 0.652752 0.0654669 0.59008 -0.256524 0.765507 0.648743 -0.140663 0.747895 -0.468545 -0.877955 0.0982874 -0.0118392 -0.128025 -0.9917 -0.713131 0.439468 0.54618 0.0862842 -0.435596 0.895997 0.222808 -0.738833 0.63599 -0.652841 0.744237 0.1411 0.243757 0.253255 0.936186 -0.589852 -0.665439 0.457456 -0.675779 0.418999 -0.606435 -0.804008 0.301873 0.512293 0.884768 0.345288 -0.312989 -0.802639 0.59631 -0.0136088 -0.477137 0.642727 -0.599368 0.768997 0.59022 0.245528 -0.699019 -0.103487 -0.707576 0.569515 0.640867 -0.514724 0.0652376 0.908194 -0.413435 -0.0956681 -0.670259 -0.735935 -0.669076 -0.396896 0.628339 -0.181751 -0.873193 -0.452216 0.542137 -0.274077 -0.794335 0.195302 -0.596852 0.778219 0.723889 0.599116 -0.342119 0.902256 0.244363 -0.355277 0.477102 0.603971 0.63843 0.734969 -0.651611 0.187678 0.0542252 0.246052 -0.967739 -0.461791 -0.545018 -0.699789 0.953259 -0.257864 0.157493 -0.824129 0.21328 0.524713 -0.834098 0.284294 -0.472713 -0.00996909 0.0710138 -0.997426 -0.164762 -0.968311 -0.187692 -0.778012 -0.608338 0.156915 0.430793 0.0453073 0.901313 0.936378 -0.292531 0.193962 -0.568126 0.114841 0.814889 0.264076 0.392096 -0.881207 -0.0204842 0.97446 -0.223625 -0.139441 0.293114 -0.945854 -0.118956 -0.681347 -0.722229 -0.94363 -0.328582 -0.0399602 -0.905677 0.0667591 -0.418679 -0.972166 0.000995225 -0.234293 0.111465 0.281286 -0.953128 -0.472207 -0.407776 0.781498 0.596202 -0.801144 0.0520762 0.314887 0.948311 -0.0393972 0.967424 -0.174778 0.183148 -0.330494 0.816418 0.473535 -0.274107 0.730406 0.625598 0.922852 0.313233 0.224116 -0.934752 0.25475 -0.247674 -0.453233 -0.355487 0.817441 0.251987 0.508535 -0.823344 -0.821097 -0.273004 -0.501268 0.832384 0.394902 -0.388831 -0.967897 0.212463 0.134293 -0.968157 0.0134055 -0.249984 -0.31296 0.54536 0.777585 0.524521 -0.677383 -0.515781 0.937431 -0.215524 0.273445 0.964974 0.105514 -0.240192 0.119026 -0.986655 -0.111105 0.0840246 -0.283211 -0.95537 0.198627 -0.141962 -0.969739 -0.0275838 0.0706958 0.997116 -0.971013 0.227502 0.0733262 0.174218 0.800439 0.573537 0.293049 0.822385 -0.487653 0.909302 0.249848 0.332786 -0.50886 0.749596 0.423282 0.439778 -0.171013 -0.881675 0.0814128 0.412781 -0.907185 -0.479578 0.581315 0.657326 -0.613756 0.688538 -0.386288 0.990494 0.1313 -0.0410104 -0.234472 -0.624984 -0.744593 0.866803 -0.0946805 -0.48958 0.737323 -0.551082 0.390722 -0.592855 0.752125 -0.287802 -0.246237 -0.868504 -0.430196 0.260461 -0.819955 0.509739 -0.12948 -0.456402 0.880303 -0.120111 -0.976621 -0.178283 0.240797 -0.6431 0.726938 -0.972641 -0.217469 -0.0817119 0.724092 0.176376 -0.66677 -0.148957 0.749137 0.64545 0.264852 -0.307863 -0.913824 0.137449 -0.967604 0.211778 -0.847698 0.311585 -0.429329 0.322225 0.867603 -0.378731 0.965143 0.247283 -0.0857367 -0.692391 -0.508037 -0.512341 -0.914012 -0.176137 -0.365454 0.0538569 -0.302042 -0.951772 -0.96807 0.035526 -0.24815 -0.963297 -0.26842 -0.00311743 -0.910774 -0.299662 0.284065 -0.402523 0.912123 0.0775076 0.56217 0.560986 -0.607667 0.650345 -0.115619 -0.750789 0.703521 -0.537164 0.46531 0.229452 -0.929012 -0.290325 -0.770141 -0.0729821 0.633685 -0.546662 0.822825 0.155301 0.335176 -0.531774 0.777736 -0.225957 0.756263 0.614011 -0.931604 0.229521 -0.28184 0.923432 -0.208306 0.322307 -0.45935 0.118053 0.880376 -0.926849 0.302664 -0.222137 -0.512791 0.0539282 0.856818 0.284635 0.149247 0.946947 -0.511321 -0.856269 -0.0731723 0.680895 -0.704283 -0.200915 -0.424436 0.316418 0.848371 -0.478317 -0.745236 -0.464582 0.0910309 -0.989826 -0.109349 -0.405285 0.280538 -0.870082 0.997426 0.0457763 0.055192 0.641002 -0.229543 0.732411 -0.180521 0.802995 0.567988 -0.255685 -0.746895 -0.613818 0.294867 -0.951232 -0.090617 -0.432034 -0.554801 0.711015 0.592745 0.803652 0.0528774 -0.0228016 -0.534733 -0.844714 0.386939 0.326527 0.862357 -0.573602 0.799167 -0.179759 0.903593 0.420267 0.0830386 0.427867 -0.806889 0.407259 -0.943995 -0.328338 0.0326632 -0.275499 0.827036 -0.490012 -0.547288 0.236446 0.80285 0.615956 0.711091 0.339039 0.743792 -0.624951 -0.237085 0.48176 0.0521203 0.874752 -0.396732 -0.0797045 -0.914468 0.225618 -0.828618 0.512337 -0.308169 0.592213 0.744524 -0.903889 0.217121 0.36857 0.22839 0.515593 0.825834 -0.0806526 -0.638932 0.765023 -0.962875 -0.229643 -0.141901 0.91137 -0.204202 0.35736 0.626636 -0.493869 0.602844 -0.329967 -0.869915 0.366563 -0.286672 0.780946 -0.554926 0.292414 -0.79586 0.53019 -0.80638 -0.363165 -0.466757 0.896184 0.44121 0.046784 -0.738921 0.281951 0.611964 0.201837 -0.973213 0.110085 0.125909 0.227037 -0.965713 -0.634619 0.755815 -0.161251 0.330919 -0.524162 0.784695 -0.252356 0.846236 0.469255 0.407818 -0.578694 -0.706256 0.604241 -0.407208 0.68489 -0.853063 -0.431972 0.292719 0.486425 -0.634687 0.600469 0.699867 -0.557644 -0.44634 0.708622 0.657431 -0.256201 0.658823 -0.662933 0.355629 0.626253 0.459414 -0.629877 -0.919908 -0.326691 0.216893 -0.586392 0.598985 -0.545309 0.412588 -0.00536314 0.910902 0.129557 -0.86479 0.485132 -0.283031 -0.859426 -0.425769 -0.570064 -0.445165 -0.690546 0.153504 0.979652 -0.129298 -0.411472 0.163591 -0.896621 0.376298 -0.755124 0.536831 0.936435 -0.230158 0.264796 0.736943 -0.163677 -0.655839 -0.715201 0.653785 0.247087 0.347005 -0.0272344 0.937468 0.953876 -0.245266 0.173105 -0.320435 0.823063 -0.468923 -0.902836 -0.396893 0.165417 0.851057 0.279052 0.444782 -0.568735 0.141844 -0.810198 0.367127 -0.216073 -0.904727 0.24191 -0.526304 0.815159 0.0866945 -0.527782 0.844944 -0.68167 -0.73044 0.0422403 0.434532 0.834303 0.339295 0.547833 0.65105 -0.52537 -0.0883127 0.436874 0.895177 -0.758574 0.588667 0.279351 0.283781 -0.866277 -0.411135 -0.716728 -0.0831181 -0.692382 -0.846444 -0.4474 -0.288732 0.297782 0.76579 0.569992 -0.930977 0.3607 0.0563767 -0.701682 -0.162349 0.693748 0.200142 0.555468 -0.807093 -0.783881 0.551302 -0.285652 -0.739559 -0.621207 0.259141 0.570755 0.671347 0.472791 0.830483 0.45065 0.327433 -0.528839 0.84095 -0.114593 -0.0868557 0.983407 0.159272 -0.54218 0.561749 -0.624883 0.365176 0.918903 0.149208 -0.584653 0.782448 0.214372 0.921423 0.0580387 -0.384202 -0.769778 -0.367228 -0.522098 -0.246553 0.692792 0.677681 0.477823 0.542164 0.691189 -0.526776 0.771872 -0.355979 -0.270962 -0.231559 -0.934323 -0.0479826 -0.976966 -0.20793 -0.0777063 0.772503 -0.630238 -0.745499 0.283626 -0.603148 -0.648217 -0.741685 0.17239 0.528016 0.273312 -0.804052 -0.874577 0.304154 0.377631 -0.282774 -0.300252 0.910981 0.591802 -0.604407 0.533351 0.740991 -0.383187 0.551452 0.0405338 0.945555 0.322929 -0.800012 0.0487133 -0.59800