# vtk DataFile Version 4.0
Generated by libgran
ASCII
DATASET POLYDATA
POINTS 1686 FLOAT
-30.4937 1.18797 6.17844 -29.4132 0.917792 7.75333 -30.798 0.85279 4.45229 -30.1786 2.15057 5.51696 -31.5393 0.544167 8.66064 -31.2035 1.08295 3.24021 -30.4182 0.401496 12.4488 -30.4975 -1.17621 13.2372 -30.6256 0.985373 11.2723 -30.1804 -0.237919 10.0446 -29.9947 1.48529 9.94 -29.1081 1.58946 8.97982 -30.6609 -2.29057 16.0397 -29.6531 -2.16465 15.1816 -29.604 -1.03439 14.995 -28.8016 0.405219 14.397 -28.1494 0.797098 15.046 -28.1866 1.1249 13.5667 -31.9746 -3.25712 14.029 -34.2435 -3.37758 15.2188 -33.0509 -3.1407 14.6806 -33.4733 -3.03988 16.3747 -34.9759 -3.91393 14.2406 -32.9934 -3.2333 17.4705 -33.1003 -1.78733 17.6557 -33.391 -1.19204 18.6638 -32.1075 -1.18178 18.9828 -32.0506 -2.40758 21.7743 -32.7886 -1.21265 22.4194 -32.1594 -1.48055 20.6978 -32.2677 -3.68889 22.0558 -33.5389 -4.79821 21.3977 -32.4599 -1.22689 24.0707 -31.4339 -2.20784 19.5065 -32.9382 -5.04929 19.3428 -33.8514 -5.98321 18.7652 -31.7382 -5.59103 19.1576 -30.6811 -5.92334 19.115 -30.0897 -5.18404 20.6575 -30.8063 -4.78726 22.1979 -29.4588 -3.94609 21.1581 -33.3901 -7.41999 19.4722 -25.5569 -10.9195 21.3815 -26.4116 -10.1885 20.6722 -27.7558 -10.9448 20.3584 -26.6501 -11.0641 23.5229 -27.6751 -10.8397 22.5227 -29.2668 -11.7323 20.2318 -30.7247 -8.6069 18.2215 -29.5798 -7.98633 17.6963 -30.3684 -9.87398 18.4103 -31.8812 -9.59715 18.7636 -29.7893 -11.1416 19.2223 -32.6882 -8.79566 19.8243 -28.6131 -9.06654 16.5409 -28.5459 -9.99825 15.1234 -27.7956 -12.2992 15.2619 -27.3072 -11.8098 14.1258 -28.5114 -11.0428 14.2879 -26.6823 -12.0031 16.5508 -25.4521 -11.373 14.1388 -25.1515 -11.8893 17.1224 -25.0112 -13.0029 16.9684 -24.3926 -8.71775 11.3107 -25.345 -9.12748 10.8071 -25.829 -7.99622 11.9512 -23.1547 -8.80083 11.7889 -22.8754 -8.96261 10.1646 -23.1852 -9.1772 13.6147 -24.048 -10.2503 14.4829 -36.3114 13.7163 1.61618 -35.9321 13.2038 -0.262916 -35.5646 12.279 -0.361086 -35.8163 14.4725 2.93053 -35.4787 14.4775 3.9746 -34.6873 15.053 4.18089 -35.0538 14.4379 4.87899 -38.5579 11.7198 -1.47858 -39.3693 12.1766 -2.42676 -37.9383 13.313 -1.7316 -37.9662 11.5599 -0.551141 -38.2728 9.95786 -1.275 -38.7004 8.71242 -0.972646 -39.1926 7.40305 -0.460823 -43.1035 7.11259 -2.29836 -42.814 6.33588 -3.12947 -43.7699 8.40084 -3.17875 -43.2898 8.49768 -0.869087 -39.9013 6.69288 -0.834019 -38.5385 6.00835 -1.35905 -38.5524 6.32889 -2.64583 -37.9068 5.52027 -3.13139 -38.0436 4.64183 -1.82265 -38.5147 7.87693 -3.48224 -39.7928 6.60384 -3.53027 -38.3233 8.34757 -4.72134 -37.6729 3.26994 -2.33998 -38.4581 3.00884 -0.946616 -37.3623 5.17468 -9.63584 -36.3064 5.14112 -10.4433 -37.0268 3.49868 -10.4255 -37.8612 6.68185 -11.3295 -38.3465 6.01952 -12.0146 -39.1091 6.61594 -10.3819 -39.2387 5.45714 -12.9224 -39.5943 5.95361 -11.067 -37.6933 1.8197 -10.404 -39.2514 6.86091 -8.22989 -39.691 6.78303 -9.49369 -39.6066 6.73732 -7.06178 -40.1726 6.39988 -6.15059 -41.023 5.86335 -5.65622 -40.3429 5.80973 -4.83661 -42.2304 7.02595 -6.11036 -41.2179 6.89838 -3.8063 -34.7343 1.988 -12.3305 -33.3417 2.49506 -13.1836 -33.9045 1.06774 -11.9529 -35.35 3.11682 -11.9916 -35.8717 4.27283 -12.4341 -37.4496 3.85331 -12.6698 -34.1686 -0.580511 -11.6656 -38.2988 3.23255 -13.4074 -37.0428 -1.64274 -9.47632 -36.6125 -0.359538 -9.5073 -37.8322 0.129493 -9.90192 -35.6153 0.967492 -9.64677 -26.1427 12.6617 19.1895 -26.5089 13.7361 19.8821 -24.9267 13.5261 19.7464 -27.3843 12.2222 17.8687 -29.2364 13.1429 18.7372 -30.0953 10.8824 17.0067 -29.7083 12.308 15.859 -30.9376 9.93915 16.8022 -30.7056 9.15922 17.5193 -28.8969 11.9613 15.3882 -32.6472 9.83634 16.6951 -31.2675 9.98015 15.3703 -33.4991 9.79538 18.1508 -26.2562 5.03393 12.1399 -25.9564 3.93783 12.1791 -26.6846 6.25918 12.4285 -28.1192 5.38168 12.6674 -27.2265 3.18794 13.1987 -27.0994 2.64678 11.8031 -27.4434 2.62284 14.6457 -26.8098 1.83731 10.657 -26.7148 1.96137 9.59441 -30.0314 9.39226 14.7086 -31.0277 9.3379 13.8297 -28.6928 9.29382 14.3224 -30.779 7.80457 12.9537 -32.0343 9.06631 12.6489 -31.1436 6.5051 12.9351 -29.6745 6.1724 12.8576 -32.3073 6.02753 4.64651 -33.0002 5.32612 3.75443 -32.266 6.91226 5.43021 -31.4113 5.44519 5.97594 -34.5148 4.13659 3.94004 -32.4815 3.32601 5.58898 -35.6395 4.23915 3.1854 -35.1078 4.38532 1.77455 -37.6405 2.1501 1.28255 -36.0686 2.23387 1.73508 -38.7585 2.31503 0.583985 -38.4908 1.86901 -1.17788 -35.2967 3.94976 0.849651 -35.5565 1.70906 3.10057 -31.8461 5.97468 10.6551 -31.3576 8.34734 9.68512 -32.8499 8.463 10.5936 -33.2079 8.76364 11.5973 -33.8888 7.63175 11.9291 -32.5124 10.4232 11.9139 -34.2367 6.27584 12.5024 -33.1238 2.82628 8.14664 -32.8764 2.96852 9.44529 -32.0039 3.05086 6.52164 -32.5571 3.54167 10.6789 -26.0109 23.0836 27.5133 -26.6221 21.8659 27.9712 -26.1598 22.6029 29.0715 -25.6786 23.2438 26.2358 -25.8964 24.7368 26.8735 -26.4952 26.0092 26.9451 -23.2053 22.9256 27.5643 -22.9635 23.0743 29.8923 -23.7758 23.7786 31.0396 -22.6611 22.8319 28.6204 -22.2219 22.4804 27.6629 -23.7246 24.8367 28.1381 -23.7881 23.8823 32.2724 -25.3843 27.101 32.424 -24.9314 28.0174 33.2773 -25.8297 28.993 32.5363 -25.7549 26.5198 31.5558 -24.8859 25.7055 31.3187 -23.3176 28.3755 34.3404 -25.683 24.9475 30.6 -21.0546 25.0359 34.1468 -21.3967 23.7591 34.2911 -20.7928 26.1054 34.1842 -19.7294 26.5883 35.0467 -20.6629 27.5424 34.6367 -18.2536 26.0703 35.7958 -18.2499 27.3311 35.4559 -21.5481 28.5904 34.518 -19.6025 28.5361 34.1734 -28.2266 23.7016 32.2139 -28.4183 25.9776 32.63 -30.7229 25.1403 34.5714 -30.7067 24.0317 33.6808 -30.302 23.3647 31.946 -26.9606 23.2843 32.1605 -32.2168 21.4229 29.8798 -32.7721 22.3158 31.3283 -30.9805 21.0393 29.5705 -30.1503 20.6217 29.2013 -32.8086 23.3342 32.6127 -33.7418 23.0395 32.4071 -35.4294 23.763 32.1448 -36.1146 23.8183 30.808 -35.8082 22.9188 30.324 -36.8695 25.3431 30.0112 -37.4638 25.1679 31.6171 -37.768 25.9503 30.6247 -36.948 23.1039 32.0917 -37.4678 26.1213 33.238 -37.4008 27.2137 31.3703 -41.3417 27.1833 34.406 -40.6071 28.212 33.9934 -39.7401 27.334 33.5271 -38.3445 27.1239 33.3097 -41.1374 27.5535 32.2457 -37.1903 27.1905 33.0068 -37.6201 11.306 20.0482 -38.151 10.3787 20.8387 -39.113 11.8984 20.4707 -36.1894 10.7322 19.4621 -36.9095 12.2916 19.2296 -35.1866 9.15975 19.4476 -34.263 8.17699 18.9084 -34.756 7.53135 18.1024 -33.112 7.44042 18.4121 -35.335 6.55989 17.4031 -35.773 6.26601 18.7386 -31.5241 5.48384 18.2958 -30.9026 6.39323 18.0323 -41.7648 13.3899 18.7562 -42.7124 12.908 19.5549 -43.9613 12.8928 18.5136 -41.6462 14.8634 18.9845 -42.798 14.9373 18.0729 -40.5775 10.503 17.3661 -40.4306 12.0893 18.0306 -40.3193 10.0267 18.3502 -40.0103 9.49732 19.1404 -38.199 9.31046 18.7683 -39.4744 8.64993 19.8289 -30.1677 16.4252 21.4269 -31.346 16.579 22.0237 -30.3388 16.1254 23.2933 -29.1724 15.7395 20.8115 -29.9981 15.674 19.6947 -32.2728 17.4515 22.2052 -31.851 18.3508 23.6576 -30.8613 18.8855 25.2343 -34.3288 12.2404 18.2166 -33.6156 11.784 19.2129 -32.5144 12.5406 18.4916 -34.9799 13.3264 17.8102 -36.2273 12.7497 18.3904 -31.4313 12.3648 19.392 -31.0551 13.2898 19.4454 -29.66 20.1276 25.7938 -29.8148 18.5788 25.4966 -30.6429 20.2522 27.9007 -31.9295 20.434 26.7024 -29.7089 17.0239 25.6015 -29.2627 15.7836 26.4599 -31.4108 20.7388 24.3929 -32.523 20.1801 25.3059 -31.1738 22.0252 24.6321 -32.6253 22.888 24.2797 -34.2496 22.7958 24.326 -34.0885 24.2336 22.7164 -5.8893 22.3492 37.717 -4.89953 22.2574 37.8262 -7.16044 21.9566 37.7929 -5.41357 21.5629 37.3227 -7.88214 23.14 38.843 -8.75356 21.7156 38.2924 -8.74888 22.8049 38.4736 -8.71347 23.6865 38.9444 -4.73385 20.5301 37.5675 -3.6417 21.1332 36.9084 -4.39606 18.8274 37.6899 -9.69412 20.8714 37.2647 -5.51453 17.1576 39.1103 -5.65144 17.9707 37.8124 -6.22331 15.9307 39.3939 -6.57081 14.932 39.7652 -3.85778 18.2258 38.6578 -0.971455 22.3802 37.8188 -2.12956 22.502 37.1768 -2.30818 21.2807 37.0633 0.0734391 23.9317 37.6626 -2.14821 24.1451 36.8394 -2.51802 20.0434 36.9485 -2.27811 25.9113 37.2334 0.440579 28.3159 37.3769 1.31255 27.1077 38.0706 -2.37828 27.5651 36.9297 2.22772 26.663 37.1898 -3.04116 26.8933 38.3521 -20.1804 30.5887 41.8556 -19.0213 30.0018 41.5725 -20.2994 30.557 43.5535 -21.5051 30.1854 42.1067 -17.9621 28.6797 43.995 -18.3556 29.05 45.5469 -17.4223 28.0158 42.4878 -15.1472 27.0107 40.5821 -15.9488 26.8811 41.635 -14.3111 25.5947 40.3989 -17.0086 26.837 41.8217 -16.9489 25.676 42.7639 -16.0745 25.1429 42.1805 -13.1377 25.4853 41.198 -13.9732 25.0418 41.836 -16.8642 24.7836 44.0803 -11.3743 21.8438 41.8175 -12.5762 22.2572 42.215 -11.2053 22.3266 40.9582 -10.4437 21.9149 41.4586 -12.7865 23.215 43.2952 -13.2562 22.1967 44.0817 -13.3346 24.7025 43.1425 -10.3589 23.393 40.6484 -14.935 24.7196 42.5647 -9.94136 25.4599 38.5887 -9.38788 24.2846 38.2715 -10.5652 25.0451 39.9534 -10.5952 26.0248 40.1513 -11.5051 25.6505 38.6363 -10.4732 25.3679 40.8953 -18.8117 33.7954 39.2678 -18.82 34.7764 37.6338 -17.8094 34.1006 40.0873 -17.531 35.6702 39.8467 -17.3059 35.4083 40.7852 -17.7479 36.2867 40.6036 -17.6088 37.3924 40.0596 -18.7141 34.4308 36.5831 -19.36 35.8954 37.1302 -16.699 36.5889 41.4859 -17.6436 39.1983 44.0127 -19.3397 39.1746 43.3097 -19.4834 39.6955 44.3424 -19.6054 38.5146 41.8938 -21.0107 38.7225 42.9997 -18.1906 38.187 40.7744 -16.5599 37.6945 40.9419 -19.2244 41.2412 45.9564 -17.858 41.6891 44.8548 -18.8997 40.5544 47.0477 -20.0585 40.2778 45.6467 -17.6537 41.8035 43.6102 -16.4616 42.3135 44.5615 -19.7341 38.1155 47.7649 -21.244 37.0199 50.5427 -20.3364 37.9814 50.402 -21.3148 38.8905 51.0486 -19.3009 37.6885 49.2763 -17.6135 38.2521 49.4397 -22.0156 39.8429 50.8336 -16.3991 26.8272 38.3057 -15.7123 26.5026 37.2144 -15.7473 27.8933 37.0516 -15.5791 24.9427 37.1842 -16.8109 28.3086 36.0601 -14.5644 24.321 38.3385 -13.0379 25.0392 38.482 -18.1886 28.364 34.9808 -18.3151 29.5225 33.8071 -17.682 28.7502 33.755 -17.3894 29.6578 33.4539 -18.5249 30.6174 35.5068 -18.2194 30.0198 36.5516 -21.2759 29.3376 36.4938 -21.6081 30.5944 35.4581 -21.1519 32.6579 41.0455 -22.8288 32.1739 41.1086 -20.6192 31.7582 40.2239 -21.0342 3
[...]
POINT_DATA 1686
FIELD FieldData 1
normals 3 1686 double
-0.333244 0.243246 -0.910923 0.74727 -0.0269326 0.663974 0.0289249 -0.578427 -0.815221 0.648311 0.719352 0.249451 -0.463243 0.83615 0.293699 -0.434387 0.808587 -0.396856 -0.393947 0.88672 -0.241935 -0.473202 -0.690986 0.54646 0.186588 -0.302843 -0.934597 0.258599 -0.920449 -0.293088 0.444326 0.802764 -0.397675 0.4422 -0.698598 -0.562512 -0.410837 -0.804122 0.429651 0.597014 -0.678203 -0.428503 0.646048 0.452059 -0.615032 0.156405 0.987546 0.0170123 -0.49582 0.595667 -0.631935 0.458559 -0.26787 -0.847331 -0.809759 0.547758 -0.21036 -0.925975 0.194457 -0.323661 0.266572 0.431339 -0.861908 -0.155762 0.532155 0.832196 0.193616 -0.730803 -0.654554 0.635656 -0.725569 0.263613 0.528756 0.720403 0.448817 -0.819499 -0.125115 0.559256 0.464046 -0.114857 0.878333 0.624686 -0.743124 0.239864 -0.113272 0.451809 0.884895 0.515939 0.183912 -0.83665 -0.841803 -0.538181 0.0415836 -0.429324 -0.571138 -0.69963 0.441996 -0.466046 0.766446 0.209567 -0.911209 -0.354655 0.801492 -0.0596781 0.59502 -0.111643 -0.993596 0.0174215 0.398589 -0.482061 -0.780221 0.658434 0.149744 0.737591 -0.0669697 0.589562 0.804942 -0.649663 -0.192781 0.735373 0.697793 0.64839 -0.304426 0.572875 -0.443183 0.689495 -0.243252 0.968904 0.0453213 -0.611433 -0.237945 -0.754673 -0.732769 -0.518353 0.440863 0.128258 0.216881 0.967736 -0.896762 0.441318 -0.0324894 -0.778172 -0.269136 -0.567464 -0.478433 -0.859251 -0.181076 0.666544 -0.23868 -0.706223 0.834753 -0.407834 0.369946 -0.67803 -0.130999 0.723267 -0.255629 -0.85981 0.442019 -0.129016 0.93249 0.337368 0.300095 -0.841535 -0.449178 -0.232843 -0.0901718 -0.968325 0.448619 -0.301972 0.841162 0.936968 0.187436 -0.294888 -0.26727 0.954425 -0.132817 0.664665 0.598135 0.447723 0.918161 0.249424 0.307843 0.86607 -0.484317 0.123937 0.725749 0.629311 0.27795 0.891562 0.0934759 -0.443147 -0.0608012 -0.31625 -0.946725 -0.544792 0.815013 0.197371 0.346349 -0.176554 0.921342 0.625642 -0.338329 -0.702926 -0.376887 -0.199816 0.90445 -0.485895 -0.873265 -0.0362497 -0.209052 0.136178 0.968376 0.170243 -0.376308 -0.910719 -0.197192 0.548523 -0.81255 0.704136 0.620077 0.345973 -0.366523 -0.615078 0.698097 0.424866 -0.0396236 0.904389 0.791389 0.575455 0.20629 0.00192006 -0.855718 0.51744 -0.809502 -0.398956 -0.430743 0.621469 0.737467 0.264421 0.589757 0.695764 0.409999 0.283166 -0.906262 -0.313857 -0.710808 -0.339175 0.616208 0.218655 -0.970203 -0.104385 -0.710307 0.700116 -0.0728109 -0.420805 -0.0765903 -0.903912 0.043946 0.588128 -0.807573 -0.661216 0.742396 -0.107897 0.927427 -0.260039 0.268811 -0.435449 0.424496 0.793843 -0.449374 0.745034 -0.492937 0.196235 -0.0635834 -0.978493 0.0594632 -0.942021 0.330243 0.487036 0.803011 -0.343467 -0.791046 -0.470081 -0.391496 -0.295582 -0.332378 -0.895632 0.311198 -0.429867 -0.847567 -0.473998 -0.690967 0.545793 -0.495925 0.763014 0.414569 0.559956 0.729451 -0.392875 -0.160466 -0.912994 -0.37509 -0.507673 0.545207 0.667096 -0.992953 -0.117125 -0.0180436 -0.740179 -0.611121 0.280476 0.100761 -0.445257 -0.889715 -0.254895 0.0512124 0.965612 -0.505943 -0.765987 0.396592 0.281311 -0.700327 0.656054 -0.158247 -0.77821 -0.607739 -0.636531 0.576733 0.512062 0.0706086 -0.914172 0.399128 -0.921039 0.377647 0.0952398 -0.240954 0.324026 0.914849 -0.28641 0.78495 -0.549384 -0.634049 0.764624 0.115465 -0.939181 0.183844 0.290071 0.453402 0.690912 -0.563087 -0.10939 -0.736408 0.667635 0.323459 0.944985 0.0487525 -0.845065 0.211023 -0.491258 -0.732861 -0.630547 0.255589 -0.154631 -0.911847 -0.380295 -0.116335 0.00979285 -0.993162 -0.422366 0.848016 -0.320119 0.852649 0.435184 0.289146 -0.367016 0.924215 -0.10548 0.144551 0.891846 -0.428621 -0.368746 -0.411054 -0.833703 -0.73494 0.66329 -0.141103 0.847265 0.453361 -0.276778 -0.872893 -0.0284282 -0.487082 -0.602908 0.164453 -0.780678 -0.0170424 -0.932713 0.360216 0.369987 0.492911 -0.787495 -0.825225 -0.0105175 -0.564706 -0.593281 -0.79044 0.152388 -0.441342 0.83959 -0.316711 -0.884378 -0.0922893 0.457557 0.495247 0.0515244 -0.867223 0.0323966 0.0513318 0.998156 -0.908004 0.349654 0.230803 -0.608194 -0.746453 0.270014 0.479587 0.87559 0.0577806 -0.954988 -0.00190462 0.29664 -0.661932 -0.00343053 0.749556 -0.534848 -0.544591 -0.646032 0.445053 -0.561671 0.697462 0.824494 -0.264886 -0.500045 -0.729531 0.388954 -0.562582 0.740881 -0.639422 0.205511 -0.255403 -0.693775 -0.673383 0.59773 0.540982 -0.591656 0.504113 -0.839552 -0.20254 -0.751224 0.422188 -0.507366 -0.868701 -0.459926 0.183917 0.600358 -0.792621 0.106401 0.0925817 -0.0921118 0.991435 -0.600376 -0.793522 0.0993579 -0.0513349 0.976837 -0.207734 0.803388 -0.490228 0.338001 -0.914186 -0.396011 0.0862537 0.992981 -0.0560094 0.104167 -0.21053 0.498574 -0.840893 0.742269 -0.352405 -0.569954 -0.944348 0.16208 0.286245 0.627512 0.245851 0.738774 -0.17362 0.00284838 -0.984809 0.441249 -0.448869 -0.777056 0.93118 0.0831575 0.35495 -0.115394 -0.770657 0.626716 0.263717 -0.696333 0.667513 -0.712007 0.53989 0.448959 -0.780313 -0.424226 0.459503 0.422351 0.724863 0.544236 -0.258585 -0.407027 0.87605 0.273101 0.934666 -0.227629 -0.0893152 -0.948878 -0.302743 0.604607 0.00543908 -0.796506 0.852084 0.147682 0.502139 0.515339 0.219142 -0.828494 -0.532879 0.425466 0.731449 -0.228268 0.714011 -0.661878 -0.839462 -0.503689 -0.203962 -0.377149 0.233325 0.89628 0.560616 -0.553838 -0.615608 0.342779 0.939157 0.0220548 -0.941517 0.333307 0.0495273 0.80026 0.515832 0.30578 0.0462446 -0.851891 -0.521674 -0.766054 -0.147664 0.625585 0.256103 0.609485 -0.750293 0.183164 -0.961003 -0.207179 -0.335332 -0.428116 -0.839207 0.753754 0.251376 0.607178 0.342501 -0.906427 -0.247149 0.795321 0.00997377 0.606106 -0.102966 0.985502 -0.134849 -0.713093 0.3252 -0.621083 0.155878 -0.489152 -0.858157 0.818546 0.348058 0.456988 -0.953038 -0.268825 0.139472 0.197621 0.547545 -0.813106 -0.144446 -0.729312 -0.668759 0.0642367 0.521938 0.850561 0.999166 -0.0390814 0.011859 0.0656577 0.914985 -0.398109 0.476606 -0.47886 0.737252 0.480325 0.78189 0.397411 -0.950907 0.133093 0.279396 0.994757 0.0787904 -0.0651989 0.493197 -0.549918 -0.674053 0.849563 -0.256868 -0.460718 -0.00901415 -0.994686 0.102561 0.0251543 -0.113874 -0.993177 0.379546 -0.553152 -0.741598 0.77284 0.132582 0.620597 0.346567 -0.809433 -0.474035 -0.208728 0.0834265 0.974409 0.889689 0.425841 0.164659 -0.0594943 -0.843482 -0.533853 0.172216 0.934989 0.31006 -0.760991 0.6403 0.104439 -0.926585 0.0832283 -0.366761 -0.241367 0.0279613 0.970031 0.0650483 -0.871527 0.486015 -0.684038 -0.369396 0.628998 0.0897087 0.194162 0.976859 -0.214451 0.976611 -0.0155578 -0.592069 -0.742326 0.313697 -0.0936794 0.759211 0.644068 0.58169 0.286741 0.761194 -0.989084 -0.117325 0.0891515 -0.254526 0.911352 -0.323503 0.612525 0.0334034 -0.789745 0.783024 -0.243476 0.572357 -0.495975 -0.7724 0.396745 0.371211 0.309981 -0.87528 0.950166 0.222353 -0.218503 0.41926 -0.705013 0.571994 -0.542736 0.814769 0.203935 0.480542 -0.796191 -0.367641 -0.239623 0.763195 -0.600095 0.522246 -0.776241 0.353142 0.401301 -0.206514 -0.892362 -0.894258 -0.439134 0.0863989 0.749769 -0.530056 0.39609 0.315195 -0.532328 -0.785671 -0.12275 -0.826206 0.549832 0.0846882 0.380532 -0.920882 0.536813 0.528851 0.65738 -0.0583802 -0.0690556 0.995903 -0.889192 -0.412837 -0.197238 -0.359715 0.397678 -0.844072 -0.98626 0.148834 0.0716924 -0.165555 -0.0749228 -0.983351 0.92737 -0.0583895 0.369561 -0.0893118 -0.0981403 0.991157 -0.669149 -0.417868 0.614513 0.978112 -0.111526 0.175666 0.833264 -0.0753318 -0.547718 -0.442149 -0.735869 0.512837 0.247807 -0.118825 -0.961495 -0.930471 0.0349227 -0.364697 0.0767474 -0.418655 0.904897 0.747514 -0.56691 0.346173 -0.0782054 -0.632397 -0.770687 0.00364526 0.837655 0.546187 0.41815 0.0615713 0.906289 0.571626 0.473142 0.670358 -0.976748 0.20421 -0.0652811 -0.263605 -0.252176 0.931085 0.837605 0.504409 0.209736 0.32564 0.881831 -0.341075 -0.921819 0.305077 0.239117 0.245527 -0.680249 0.690636 0.621694 0.244764 0.744035 0.629614 0.768959 -0.110854 0.474818 -0.779781 -0.40803 0.433114 -0.473957 0.766666 -0.853429 -0.292085 -0.431677 -0.368858 -0.775138 0.512938 0.815038 -0.465149 0.34547 0.852223 0.520599 0.0518975 -0.259941 -0.0381374 0.964871 -0.615237 0.765771 0.187291 -0.836275 0.0970098 -0.53966 -0.787969 -0.189215 0.58592 -0.467726 -0.688852 -0.553818 -0.514042 -0.69444 -0.503502 0.475722 -0.786285 -0.394265 -0.757104 0.301854 0.579376 0.989763 -0.0918461 0.109237 0.0354088 0.88154 0.470779 -0.836016 -0.542858 -0.0798918 -0.831331 0.546461 0.101342 -0.86674 -0.335079 -0.369438 -0.310041 -0.941015 0.13552 0.782108 -0.337841 -0.523612 0.647833 -0.76167 -0.0131091 -0.104541 -0.301379 -0.947756 0.242461 -0.919554 0.309247 0.105553 -0.106429 -0.988702 -0.951238 -0.307388 -0.0256585 0.603741 -0.691292 0.397004 -0.109557 0.160106 0.981001 0.785315 0.614302 0.0769019 -0.372786 0.736048 -0.565035 -0.551413 -0.485274 -0.678567 0.259579 0.937169 -0.233094 0.354138 0.907077 0.227593 0.341576 -0.751972 0.563794 -0.484042 0.859083 0.166372 -0.454535 0.310559 -0.834836 0.417438 -0.897669 -0.141195 -0.383876 -0.794784 0.470061 0.497733 0.453035 -0.739609 -0.279009 0.12299 0.95238 -0.582674 -0.0361515 0.811902 0.576415 -0.623007 0.52878 0.463737 0.00440458 0.885962 -0.742046 -0.367141 -0.56087 0.743231 -0.241425 -0.623956 0.349708 0.128826 0.927959 -0.203374 -0.422483 -0.883259 0.358798 -0.670906 -0.64896 -0.442764 -0.800495 0.403941 0.477277 -0.745174 0.46575 -0.617055 0.756345 -0.217223 -0.557409 -0.404689 0.724929 0.317045 -0.937788 0.141551 0.696154 0.635826 0.333308 -0.139361 0.192293 0.971392 0.642129 -0.487661 0.591487 0.761669 -0.411702 0.500362 -0.440198 0.00175918 0.897899 0.930663 0.071114 -0.358899 0.168994 0.482816 -0.859261 0.229854 0.955994 0.182322 -0.239831 -0.0622749 0.968815 -0.777945 0.531536 -0.335069 -0.084244 0.995238 0.0490423 -0.822433 -0.514496 -0.24269 -0.745804 0.242056 0.620633 -0.192328 -0.933238 0.303442 0.122 -0.656894 0.744048 0.0919328 0.322863 0.94197 -0.817894 -0.0514647 -0.573063 -0.0300668 0.979756 0.197924 0.282012 -0.385922 0.87837 0.273705 0.595064 -0.755635 0.720333 0.69112 -0.0589366 -0.441951 0.878468 -0.181587 -0.216867 0.616523 0.756881 0.225084 -0.261944 0.938468 0.364175 0.843672 0.394455 -0.167764 -0.94064 -0.295046 -0.813667 0.523887 0.25197 0.823791 0.564099 -0.0562174 0.961889 -0.259551 0.0860421 -0.73427 -0.283286 -0.616925 -0.8779 0.237612 0.415732 0.468661 -0.376654 -0.799055 -0.936652 -0.168762 0.306923 0.94604 0.0490263 -0.320321 0.684701 -0.541515 0.487796 -0.531268 -0.618679 0.578784 0.835136 -0.170743 -0.522872 0.855998 -0.0681162 0.512473 -0.302785 -0.344706 -0.888538 -0.63079 0.285122 -0.721671 0.561265 0.795146 0.229619 0.482341 -0.684652 0.546442 0.0787727 -0.996693 -0.0199495 0.986385 -0.035191 -0.160643 0.00798187 0.873931 0.485984 0.0491165 -0.257663 -0.964986 -0.245664 0.572065 -0.782554 -0.708866 0.0785225 -0.700958 0.756633 0.455325 -0.469239 -0.0698803 -0.779875 -0.622022 -0.104923 0.610835 -0.784775 0.203112 -0.780034 0.591855 -0.95864 -0.195597 -0.206763 0.811571 0.158319 0.562394 0.714933 0.55986 -0.418841 -0.419076 0.250966 -0.872577 0.292576 0.907594 -0.30112 0.925711 0.135305 -0.353203 0.633134 -0.772288 -0.0520833 0.846151 0.0667247 0.52875 -0.540723 -0.664285 0.516086 -0.667273 0.688485 -0.284139 0.335027 0.568348 -0.75149 0.942193 -0.152195 -0.298511 -0.734772 -0.636186 -0.235324 -0.409537 -0.747456 -0.523058 -0.00543636 0.724757 -0.688984 -0.542396 -0.8182 0.190673 -0.999808 0.0041388 0.0191625 -0.675145 0.736874 -0.0345989 -0.480432 -0.184347 -0.857439 -0.167613 -0.891369 0.42115 -0.460069 -0.166898 0.872056 0.198449 -0.975915 -0.0906005 0.642218 0.0915362 -0.761037 -0.100129 -0.576623 -0.810851 -0.742348 -0.668161 -0.049816 -0.617267 0.786536 -0.0185159 -0.750355 -0.444864 0.488942 -0.0237792 0.971601 0.235427 0.334033 0.369653 0.867052 0.162889 -0.611237 0.774504 -0.171144 -0.98089 -0.0925472 0.280211 -0.957738 -0.0649641 0.93596 0.350262 -0.0359822 0.995906 -0.090385 -0.00131416 0.205108 0.978629 0.0146626 0.20555 0.104884 0.97301 0.679996 0.039535 -0.732149 0.714728 0.059742 0.696846 -0.00333348 0.119027 -0.992885 -0.506524 0.247552 0.825925 0.508677 0.848997 0.143013 -0.410722 -0.404002 0.817368 -0.816298 0.577428 0.0152949 0.937522 -0.314236 -0.149358 0.0308551 0.445665 0.894668 0.332783 0.939662 0.0793114 -0.620929 -0.693381 -0.365608 0.301928 0.493998 -0.815356 -0.315511 -0.184155 0.930881 0.0140638 -0.068982 -0.997519 -0.909263 -0.112799 -0.400646 0.247446 0.275821 -0.928813 -0.249933 0.96826 -0.00231144 -0.170372 0.473877 0.863952 0.857731 -0.508322 -0.0768482 0.144215 -0.441178 0.885756 -0.134431 0.601641 -0.787373 -0.777586 -0.493054 -0.390201 0.951432 0.176279 -0.252393 -0.0862418 0.0469022 0.99517 -0.337377 0.851949 0.400449 0.0412574 -0.110753 0.992991 0.0962214 -0.668184 0.737748 0.691913 -0.0802956 -0.717502 -0.16288 0.591186 -0.789917 -0.343936 -0.713764 -0.610122 0.73149 0.370067 0.572689 0.634176 -0.0812225 -0.768911 -0.551416 -0.335315 0.763875 -0.0679421 -0.135995 0.988377 0.287273 -0.167972 -0.943005 0.529259 -0.839285 -0.12444 0.924552 0.129816 -0.358261 0.5338 0.608937 0.586731 0.787368 -0.239729 -0.567963 0.897898 0.392857 0.198599 0.110531 0.632586 0.766562 0.695956 -0.578541 -0.425365 -0.983771 -0.171638 0.0522967 -0.0368802 -0.998124 0.0488671 0.033589 0.183373 -0.982469 -0.898254 0.38024 -0.220359 -0.650088 -0.650711 -0.39238 0.428793 0.296961 0.8532 -0.0845037 -0.988424 0.126006 0.791148 0.595327 0.140254 -0.461877 0.82427 -0.327489 0.781208 0.571276 0.25171 0.512641 -0.704711 -0.490491 0.610669 0.788198 -0.076339 0.656321 -0.00403708 0.754471 0.704937 0.136238 0.696062 -0.297362 -0.898356 0.323314 -0.0451311 -0.345232 -0.937432 -0.760339 0.37561 0.529907 0.230393 -0.236044 0.944035 0.415382 -0.547097 0.726734 -0.769183 0.637447 0.0449388 0.244432 0.489188 0.837227 -0.4308 -0.638755 0.637498 -0.774 0.156437 -0.613556 -0.816249 0.268261 0.511638 0.783846 0.427334 -0.450524 -0.899493 0.43484 -0.0427311 -0.62565 0.4039 -0.667403 0.645757 0.761419 0.056903 -0.698197 -0.376724 -0.608769 0.37119 0.649864 -0.663246 -0.134689 0.796075 -0.59002 0.0582189 -0.785277 -0.616401 -0.537487 -0.437253 0.721053 0.0321854 -0.952794 -0.301906 0.574547 -0.259388 -0.776282 0.352701 -0.399077 0.846369 0.542361 0.693406 -0.474376 0.803566 0.39552 -0.444798 0.335139 0.794622 0.506219 0.853326 -0.458643 0.247955 -0.0857376 -0.0390915 -0.995551 -0.353771 -0.725378 -0.590485 0.991976 -0.0203064 0.124781 -0.795712 0.226133 0.561878 -0.913977 0.00318628 -0.405753 -0.118266 -0.222947 -0.96763 0.0621967 -0.996413 -0.0573833 -0.602169 -0.749867 0.274028 0.462219 0.236278 0.854708 0.98884 -0.0463266 0.141599 -0.52999 0.0676971 0.845297 0.110815 0.349629 -0.930312 -0.251234 0.919967 -0.300901 -0.264062 0.160304 -0.951091 -0.012828 -0.759664 -0.650189 -0.840359 -0.537844 0.0672329 -0.923854 -0.171553 -0.342145 -0.953981 -0.254316 -0.158882 -0.00623213 0.184315 -0.982847 -0.321318 -0.411156 0.853057 0.770105 -0.631704 0.0888207 0.0800576 0.983643 -0.161364 0.991782 0.0706397 0.106668 -0.479291 0.767229 0.426192 -0.20025 0.738564 0.643758 0.936687 0.34074 0.0807059 -0.967435 0.22604 -0.113909 -0.354531 -0.344688 0.869194 0.129469 0.583255 -0.801905 -0.864074 -0.273971 -0.422275 0.763657 0.458848 -0.454187 -0.973108 0.121828 0.195494 -0.625811 0.703628 -0.336553 -0.432963 0.200036 0.878936 0.35682 -0.583083 -0.729859 0.517236 -0.827727 0.217564 0.920747 -0.390145 -0.00351828 -0.196782 -0.883725 -0.424627 0.218004 -0.0274149 -0.975563 0.411275 -0.071214 -0.908725 0.0205499 0.00144992 0.999788 -0.978823 0.15309 0.135903 0.140538 0.7721 0.619767 0.209637 0.868663 -0.448862 0.902781 0.298595 0.309561 -0.54677 0.653606 0.523299 0.398783 -0.0424647 -0.916062 -0.0115598 0.504202 -0.863509 -0.493623 0.464089 0.735498 -0.815717 0.511149 -0.270799 0.971153 0.225288 -0.0781487 -0.10415 -0.773132 -0.625636 0.842763 0.0359266 -0.537085 0.865364 -0.29183 0.407407 -0.75604 0.545534 -0.361657 -0.11152 -0.977194 -0.18071 0.481095 -0.610051 0.629591 0.0226013 -0.327757 0.944492 0.0607522 -0.996787 0.0521952 0.472581 -0.401165 0.784687 -0.916909 -0.385603 0.102898 0.609786 0.12582 -0.782515 -0.225655 0.848047 0.479475 0.235526 -0.484139 -0.842696 0.296923 -0.861872 0.411112 -0.915808 0.0880874 -0.391837 0.129899 0.843061 -0.521895 0.893093 0.41092 -0.183113 -0.62532 -0.729415 -0.277362 -0.895956 -0.4184 -0.149011 0.00751964 -0.562488 -0.826771 -0.977401 -0.192371 -0.0876422 -0.86068 -0.453624 0.231204 -0.799675 -0.327733 0.503102 -0.560257 0.818326 -0.128273 0.372853 0.416295 -0.829264 0.573877 -0.249451 -0.780025 0.841282 -0.24849 0.480101 0.347341 -0.902642 -0.254151 -0.705416 -0.142453 0.69433 -0.685667 0.719164 0.112531 0.481911 -0.360737 0.798518 -0.268791 0.796046 0.542275 -0.99823 -0.0486496 -0.0342166 0.992836 0.0860513 0.0828956 0.0811402 0.0221315 0.996457 -0.703003 0.64012 0.309891 0.00143334 -0.0118471 0.999929 0.436656 0.45347 0.776979 -0.80829 -0.574833 0.127417 0.151536 -0.808185 -0.569099 0.105579 0.265704 0.958256 -0.926655 -0.26023 -0.271276 -0.393051 -0.896645 -0.20381 -0.411024 0.642696 -0.646531 0.949196 0.306772 -0.0701245 0.747425 0.0165189 0.664141 -0.366917 0.735768 0.569226 -0.0673052 -0.819294 -0.569409 0.528063 -0.847098 -0.0597889 -0.196394 -0.57504 0.794203 0.321924 0.946602 -0.0175673 0.160473 -0.314172 -0.935705 0.350641 0.519897 0.778947 -0.776809 0.597718 -0.198244 0.763469 0.6434 -0.056137 0.655973 -0.613649 0.439471 -0.815883 -0.568819 0.103826 -0.508736 0.682158 -0.525213 -0.53648 0.16768 0.827087 0.430378 0.873681 0.226842 0.866284 -0.443122 -0.23064 0.485057 0.24408 0.839729 -0.397335 -0.253476 -0.881972 0.451568 -0.686845 0.569501 -0.415294 0.568478 0.710186 -0.917819 0.0529222 0.393456 0.126012 0.639456 0.758431 0.127614 -0.450812 0.88345 -0.886369 -0.462398 0.0231857 0.955672 0.088204 0.28091 0.770332 -0.355724 0.529197 -0.0611881 -0.864322 0.499203 -0.531958 0.610904 -0.586359 0.396639 -0.665157 0.632648 -0.759963 -0.525264 -0.382825 0.83409 0.549652 -0.0466435 -0.735533 0.309173 0.602829 0.311072 -0.914737 0.257858 0.100613 0.0698871 -0.992468 -0.717312 0.619741 -0.318409 0.288552 -0.567665 0.771035 -0.211528 0.843324 0.494025 0.307645 -0.619897 -0.72186 0.556362 -0.496838 0.666043 -0.898366 -0.313115 0.308053 0.406852 -0.710183 0.574554 0.60291 -0.640148 -0.476141 0.78277 0.569045 -0.25191 0.554915 -0.770678 0.313249 0.660944 0.358395 -0.659322 -0.94922 -0.170782 0.264225 -0.508733 0.688241 -0.517219 0.44973 -0.0663077 0.8907 0.0105102 -0.870978 0.49121 -0.439219 -0.80467 -0.39949 -0.643852 -0.344108 -0.683406 0.287933 0.950038 -0.120506 -0.4145 0.238455 -0.878253 0.282381 -0.811641 0.51137 0.901387 -0.365876 0.231593 0.683016 -0.263067 -0.681384 -0.574089 0.770991 0.275671 0.362346 -0.0961089 0.927075 0.913323 -0.381387 0.142778 -0.228544 0.852044 -0.470944 -0.939358 -0.269979 0.211465 0.899729 0.168562 0.402584 -0.575051 0.178479 -0.798412 0.311199 -0.264105 -0.912909 0.206924 -0.543225 0.813688 -0.260667 -0.393321 0.881675 -0.902279 -0.428557 -0.0472368 0.659317 0.661016 0.358273 0.832375 0.325187 -0.448783 -0.0583069 0.564853 0.823129 -0.518207 0.85198 0.0747739 0.00285474 -0.959582 -0.281413 -0.564325 0.0795723 -0.821709 -0.911258 -0.165923 -0.376933 0.456379 0.67788 0.576366 -0.712378 0.674459 -0.193964 -0.816033 0.171868 0.551862 0.515291 0.353609 -0.780664 -0.441933 0.790393 -0.424235 -0.950107 -0.233914 0.206349 0.591912 0.606902 0.530387 0.897901 0.344443 0.274103 -0.421535 0.900449 -0.107241 0.0524303 0.989636 0.133686 -0.504938 0.613941 -0.606725 0.476168 0.872969 0.105778 -0.471422 0.849926 0.235343 0.92295 -0.0831539 -0.37583 -0.804915 -0.329441 -0.493538 -0.167351 0.784471 0.597158 0.507106 0.498889 0.702818 -0.323438 0.824351 -0.464579 -0.245571 -0.262466 -0.93317 -0.3868 -0.911184 -0.141881 0.322305 0.650614 -0.68762 -0.468862 0.445041 -0.762959 -0.903012 -0.420444 0.0882941 0.714241 -0.063127 -0.697047 -0.742643 0.656314 0.133165 -0.534259 -0.0141937 0.845201 0.208383 -0.670507 0.712037 0.439285 -0.539589 0.718243 0.347586 0.903331 0.251349 -0