# vtk DataFile Version 4.0
Generated by libgran
ASCII
DATASET POLYDATA
POINTS 1686 FLOAT
-32.6202 1.33116 6.85648 -31.429 0.640882 8.20753 -33.2307 1.28056 5.18039 -32.1787 2.27094 6.23577 -33.5066 0.588486 9.37944 -33.6891 1.74587 4.05798 -31.7696 -0.0806559 12.9337 -31.8433 -1.73981 13.5327 -32.1451 0.59412 11.8513 -32.1337 -0.567735 10.4904 -31.5592 1.07081 10.4903 -30.8042 1.0788 9.41848 -31.8683 -3.19497 16.188 -30.9162 -3.00726 15.279 -30.8272 -1.86559 15.2209 -29.9656 -0.408981 14.7627 -29.3489 -0.154579 15.5078 -29.2125 0.333659 14.0794 -33.3326 -3.87164 14.1191 -35.5214 -4.20286 15.3889 -34.3573 -3.84121 14.8577 -34.7258 -4.00311 16.5596 -36.2774 -4.65085 14.3847 -34.1992 -4.32924 17.6012 -34.3586 -2.93112 17.9966 -34.6661 -2.45776 19.0627 -33.3854 -2.46608 19.3931 -33.2366 -3.91903 22.1044 -34.1901 -2.88894 22.7512 -33.4446 -2.97502 21.0576 -33.2771 -5.17875 22.5281 -34.4336 -6.51369 22.1282 -33.9306 -2.91248 24.4147 -32.6831 -3.52673 19.7965 -33.8607 -7.127 20.1153 -34.6882 -8.24578 19.7941 -32.617 -7.58287 20.0001 -31.5279 -7.78771 19.9617 -30.9856 -6.65546 21.2655 -31.6851 -6.03954 22.7402 -30.5274 -5.26384 21.4509 -34.0527 -9.44682 20.7587 -25.88 -11.7821 23.0796 -26.8022 -11.2849 22.2609 -28.0575 -12.2218 22.1061 -25.5122 -11.1271 24.9228 -26.8995 -11.1574 25.3424 -29.4773 -13.1715 22.1433 -31.298 -10.6101 19.6496 -30.2563 -9.99899 18.9331 -30.8097 -11.7687 20.0825 -32.3349 -11.5696 20.4345 -30.0749 -12.8124 21.0686 -33.1932 -10.6428 21.3418 -29.2378 -11.1884 17.941 -29.1282 -12.3677 16.7248 -28.2075 -14.5437 17.2769 -27.8241 -14.2901 16.029 -29.0572 -13.5577 16.1171 -26.9989 -13.9533 18.3627 -26.0082 -13.7593 15.7987 -25.4561 -13.7185 18.8603 -25.3501 -14.8294 19.0559 -25.2183 -11.8067 12.2733 -26.2015 -12.3097 11.9435 -26.6081 -10.8912 12.7469 -23.9604 -11.7932 12.7039 -23.7635 -12.407 11.1785 -23.9084 -11.6782 14.5641 -24.6695 -12.5126 15.7363 -36.0063 15.3016 3.20803 -35.9978 14.7339 1.30667 -35.9202 13.7447 1.18278 -35.1752 15.865 4.44754 -34.7367 15.7571 5.44762 -33.797 16.0815 5.55603 -34.2431 15.584 6.29994 -39.0566 14.0845 0.410304 -39.8056 14.7735 -0.444291 -38.0389 15.4378 0.0652814 -38.436 13.7454 1.26805 -39.2646 12.3108 0.604961 -40.0124 11.2402 0.951515 -40.766 10.115 1.57174 -44.9205 10.6541 0.44802 -44.987 9.76564 -0.316196 -45.4442 11.9913 -0.455466 -44.5013 12.1512 1.70433 -41.6712 9.57871 1.37444 -40.6112 8.56739 0.69953 -40.7949 8.81751 -0.589831 -40.4322 7.86293 -1.10327 -40.5052 7.10371 0.282876 -40.5898 10.2819 -1.5442 -42.0872 9.30826 -1.28674 -40.5325 10.6539 -2.82945 -40.5527 5.66061 -0.16693 -41.0719 5.65218 1.36814 -40.972 7.16839 -7.53213 -40.0636 6.88688 -8.46137 -41.0971 5.43529 -8.25725 -41.3731 8.69274 -9.23634 -42.0715 8.1267 -9.81549 -42.4693 8.92206 -8.13855 -43.1737 7.73731 -10.5704 -43.1677 8.35603 -8.7177 -42.0853 3.9367 -8.05403 -42.2684 9.25936 -6.00376 -42.88 9.23634 -7.19619 -42.4816 9.25055 -4.79528 -42.9518 9.0744 -3.78915 -43.7909 8.74678 -3.12274 -43.0019 8.59167 -2.4223 -44.8175 10.1024 -3.47508 -43.4498 9.88483 -1.35484 -39.4405 3.4147 -10.3405 -38.1007 3.58867 -11.3888 -38.7746 2.3522 -10.0156 -39.76 4.65831 -9.99474 -40.0875 5.88392 -10.4362 -41.735 5.80028 -10.4485 -39.3307 0.806933 -9.6009 -42.7847 5.35014 -11.0367 -42.0418 0.446067 -7.01207 -41.3651 1.60765 -7.17197 -42.4999 2.33079 -7.43981 -40.1444 2.68876 -7.5125 -25.8514 12.9783 19.7652 -26.3231 13.9663 20.5199 -24.7629 14.0674 20.1715 -27.1496 12.2877 18.6177 -29.0195 12.8454 19.7625 -29.6466 10.4233 18.0216 -29.6941 11.9622 16.9591 -30.3348 9.35307 17.8737 -29.853 8.59202 18.4779 -28.9057 11.8094 16.3631 -32.001 8.97491 18.0328 -30.8969 9.37175 16.5155 -32.5899 8.77508 19.6013 -26.6719 4.10297 13.4463 -26.5086 2.98065 13.3649 -26.9919 5.31975 13.8764 -28.5392 4.62618 13.7767 -27.9992 2.2952 14.0884 -27.7125 1.89355 12.6695 -28.4858 1.64171 15.4286 -27.3489 1.09094 11.5398 -26.9857 1.28453 10.5477 -29.782 8.90036 15.5954 -30.9164 8.88233 14.9019 -28.4688 8.9762 15.1261 -30.8815 7.34737 13.9948 -31.9626 8.76921 13.7298 -31.4189 6.11044 13.939 -30.0081 5.58353 13.856 -33.2318 6.52209 5.70611 -34.2513 6.0769 4.97785 -32.7709 7.35032 6.41339 -32.3695 5.68761 6.91824 -36.0111 5.45253 5.48466 -34.1031 3.93032 6.72287 -37.1555 5.95533 4.95325 -36.8665 5.9817 3.46651 -40.0354 4.67027 3.47141 -38.4658 4.23657 3.64728 -41.1892 5.11276 2.98357 -41.4024 4.54283 1.25024 -37.3527 5.66116 2.60528 -37.939 3.54547 4.93068 -32.4413 5.62891 11.6642 -31.7108 7.88719 10.6517 -33.0266 8.25523 11.7467 -33.2377 8.63578 12.7649 -34.056 7.63798 13.2004 -32.2355 10.153 12.9421 -34.5413 6.36566 13.8591 -34.5916 3.31808 9.29313 -34.19 3.18979 10.5542 -33.6211 3.44842 7.56499 -33.5882 3.47901 11.7815 -26.189 23.3675 28.2552 -26.6351 22.0924 28.7464 -26.2109 22.8883 29.8207 -25.9356 23.5521 26.963 -26.2941 25.0166 27.6032 -27.031 26.2128 27.6966 -23.3844 23.532 28.1771 -23.0557 23.7305 30.4908 -23.89 24.3486 31.6714 -22.7858 23.5116 29.2073 -22.353 23.2032 28.2322 -24.0928 25.3767 28.7655 -23.8581 24.4634 32.9028 -25.8046 27.478 33.1136 -25.4276 28.4424 33.9507 -26.4538 29.309 33.2411 -26.1452 26.8497 32.2661 -25.2002 26.1379 31.9926 -23.8322 28.9839 34.9627 -25.9371 25.2868 31.3149 -21.2178 25.9299 34.698 -21.4143 24.6236 34.8502 -21.0667 27.0207 34.7297 -20.0415 27.6255 35.561 -21.091 28.464 35.18 -18.4941 27.2838 36.2655 -18.6467 28.5358 35.9273 -22.0949 29.4021 35.0888 -20.1671 29.573 34.6868 -28.2436 23.7734 33.0515 -28.6774 26.0167 33.4648 -30.7762 24.9392 35.5179 -30.6736 23.8301 34.6338 -30.2759 23.1952 32.8854 -26.9419 23.5024 32.9412 -32.0511 21.0349 30.9128 -32.6376 21.8692 32.3836 -30.7947 20.7914 30.5476 -29.9402 20.4679 30.1411 -32.7306 22.8858 33.6667 -33.6329 22.4864 33.5046 -35.4014 23.0134 33.3184 -36.1479 22.9742 32.0143 -35.7663 22.107 31.5249 -37.1013 24.3956 31.2393 -37.6 24.1791 32.8725 -38.0327 24.9093 31.8881 -36.8391 22.1911 33.3416 -37.6361 25.1491 34.4831 -37.7738 26.2158 32.6043 -41.5468 25.8057 35.8213 -40.9475 26.9002 35.3622 -40.0126 26.1129 34.8663 -38.6139 26.0506 34.586 -41.4824 26.1589 33.6495 -37.4888 26.2389 34.2295 -36.5365 9.42412 22.2792 -36.7213 8.41133 23.12 -38.0196 9.70119 22.9734 -35.1551 9.15575 21.4192 -36.1942 10.5429 21.3975 -33.8905 7.8121 21.1481 -32.919 7.02926 20.4045 -33.4481 6.3329 19.6666 -31.7808 6.49799 19.6722 -34.0163 5.32482 19.0117 -34.1208 4.88909 20.3758 -29.981 4.80737 19.1746 -29.5458 5.80308 18.8555 -41.2108 10.5734 21.855 -41.8559 9.90846 22.8087 -43.2567 9.61754 22.0357 -41.3628 12.0405 22.1039 -42.6627 11.8576 21.4406 -39.7422 7.99315 20.1633 -39.8045 9.58064 20.8376 -39.1981 7.59352 21.0612 -38.6331 7.15268 21.7587 -36.9352 7.36757 21.0338 -37.8024 6.43951 22.2885 -30.1893 16.068 22.4305 -31.3182 16.1565 23.1276 -30.1723 15.8125 24.3111 -29.1673 15.502 21.7416 -30.0772 15.264 20.7175 -32.2856 16.968 23.3702 -31.8148 17.935 24.7629 -30.7541 18.5802 26.2495 -33.8822 11.027 19.9464 -32.9257 10.6959 20.7741 -32.1404 11.6775 19.9225 -34.7936 11.9691 19.7219 -35.7796 11.1419 20.4762 -30.9493 11.7443 20.6918 -30.7461 12.7233 20.6728 -29.6156 19.9238 26.6939 -29.6699 18.3614 26.4353 -30.4469 20.0362 28.8654 -31.8254 20.0892 27.7603 -29.4393 16.8209 26.5534 -28.8412 15.6398 27.4028 -31.5035 20.3639 25.4112 -32.5005 19.7534 26.4192 -31.3522 21.6769 25.5568 -32.8592 22.4343 25.1954 -34.4771 22.2739 25.2704 -34.3946 23.6153 23.5707 -5.92719 24.677 38.0277 -4.93469 24.6286 38.1399 -7.17808 24.2204 38.0778 -5.41178 23.9323 37.6037 -7.96179 25.3214 39.1722 -8.76007 23.8814 38.5552 -8.80933 24.9609 38.7827 -8.81924 25.8221 39.2908 -4.6838 22.924 37.8091 -3.61903 23.607 37.184 -4.26804 21.2344 37.8338 -9.64044 23.0187 37.4902 -5.52189 19.4403 39.1454 -5.63322 20.3735 37.9283 -6.35638 18.2835 39.3773 -6.79941 17.2979 39.6742 -3.72231 20.5684 38.7542 -0.979545 24.8882 38.1762 -2.1 25.0275 37.4739 -2.29484 23.809 37.3565 0.104268 26.4163 38.0594 -2.08595 26.6715 37.1406 -2.44586 22.5699 37.1839 -2.23121 28.4388 37.524 0.500383 30.7923 37.8833 1.32374 29.5621 38.5975 -2.29112 30.0946 37.2204 2.314 29.1536 37.783 -3.07521 29.4238 38.5803 -20.8251 31.6769 42.3921 -19.6092 31.2396 42.0784 -20.8863 31.6697 44.0933 -22.0738 31.103 42.6954 -18.3214 30.104 44.4804 -18.7046 30.4542 46.0396 -17.7618 29.4812 42.9629 -15.4395 28.6588 41.0411 -16.2155 28.4656 42.1035 -14.4871 27.3188 40.8535 -17.2655 28.3316 42.3023 -17.0962 27.1842 43.2477 -16.1856 26.7254 42.6564 -13.3 27.314 41.6397 -14.0873 26.8033 42.2887 -16.9194 26.3443 44.5893 -11.211 23.8436 42.2653 -12.4443 24.1498 42.6636 -11.0885 24.3331 41.402 -10.2915 23.9958 41.903 -12.7321 25.0916 43.74 -13.1118 24.0411 44.5327 -13.4078 26.5259 43.589 -10.3427 25.4692 41.0815 -15.0099 26.4031 43.0293 -10.1302 27.5476 39.0021 -9.51857 26.4152 38.6392 -10.7032 27.0898 40.3753 -10.8204 28.0645 40.5657 -11.7043 27.5962 39.0615 -10.6336 27.4278 41.3139 -19.9322 34.9851 39.7289 -20.0868 35.9253 38.0783 -18.9684 35.4329 40.5288 -18.9041 37.0326 40.3394 -18.5757 36.7678 41.246 -19.1348 37.5897 41.1371 -19.1753 38.7227 40.6347 -19.9524 35.5757 37.0322 -20.7709 36.9572 37.564 -18.0648 37.9896 41.9526 -19.1934 40.63 44.5822 -20.9075 40.3086 44.0076 -21.0625 40.8533 45.0263 -21.1621 39.5587 42.6351 -22.4973 39.5753 43.8427 -19.7922 39.4121 41.4254 -18.1053 39.1226 41.4502 -21.0532 42.6368 46.4397 -19.9627 43.284 45.1461 -20.457 42.168 47.5318 -21.6435 41.4729 46.3106 -19.914 43.4056 43.8865 -18.754 44.1614 44.7046 -20.5916 39.7083 48.5746 -21.4494 38.6051 51.6249 -20.8332 39.7298 51.2736 -21.9266 40.4528 51.9692 -19.8962 39.5641 50.0409 -18.39 40.5212 49.9206 -22.8733 41.1709 51.7884 -16.6813 28.2856 38.7429 -15.9857 28.0249 37.6402 -16.1859 29.3992 37.459 -15.699 26.4855 37.6349 -17.3136 29.6748 36.4899 -14.6285 25.9859 38.798 -13.1778 26.8494 38.9264 -18.7197 29.5677 35.4519 -19.0142 30.7013 34.2839 -18.2976 30.0075 34.2121 -18.1213 30.9422 33.9037 -19.2991 31.7703 35.9902 -18.8966 31.2123 37.0239 -21.8558 30.1858 37.06 -22.3527 31.3836 36.0203 -22.0819 33.5915 41.5653 -23.6803 32.8962 41.6751 -21.4532 32.7521 40.7479 -21.8794 32.6554 39.
[...]
POINT_DATA 1686
FIELD FieldData 1
normals 3 1686 double
-0.38781 0.418287 -0.821364 0.803399 -0.271995 0.529688 -0.222678 -0.468895 -0.854724 0.829327 0.521494 0.200653 -0.282778 0.857868 0.429068 -0.235781 0.934211 -0.267687 -0.385251 0.915983 -0.112056 -0.458926 -0.74317 0.486915 0.0097148 -0.241207 -0.970425 0.00176368 -0.920647 -0.390392 0.576273 0.7179 -0.39055 0.178648 -0.709912 -0.681256 -0.417862 -0.832908 0.362843 0.53427 -0.645198 -0.546145 0.623263 0.496469 -0.604203 0.238352 0.960141 0.146007 -0.37831 0.705738 -0.599012 0.514733 -0.2175 -0.829303 -0.803694 0.592146 -0.0586516 -0.942989 0.200058 -0.265985 0.221038 0.561708 -0.797262 -0.14741 0.399808 0.904668 0.186925 -0.64805 -0.738303 0.673995 -0.725942 0.136891 0.514555 0.672174 0.532368 -0.82196 -0.198807 0.533721 0.458737 -0.207133 0.864093 0.725853 -0.642196 0.246418 -0.227601 0.387888 0.893163 0.51794 0.301807 -0.800406 -0.766314 -0.617524 0.177276 -0.390168 -0.717415 -0.577134 0.487126 -0.411421 0.770352 0.243475 -0.85351 -0.460696 0.81645 0.14737 0.558293 -0.0110953 -0.971412 0.23714 0.427293 -0.603238 -0.673442 0.661801 0.398391 0.635063 -0.119553 0.733862 0.668695 -0.579971 -0.117946 0.806054 0.577776 0.657761 -0.483244 0.646592 -0.229631 0.727453 -0.343929 0.930327 -0.127294 -0.578274 -0.433086 -0.691401 -0.676982 -0.503772 0.536571 0.794972 0.583444 0.166171 -0.59231 0.553206 0.585775 -0.742807 -0.445931 -0.499382 -0.391627 -0.919859 0.0220938 0.649992 -0.308707 -0.694414 0.879902 -0.238713 0.410838 -0.645349 -0.0395664 0.762863 -0.145144 -0.804979 0.575276 -0.212937 0.96634 0.144377 0.368543 -0.880673 -0.297641 -0.258959 -0.298626 -0.918566 0.51976 -0.0947159 0.849046 0.903129 0.158919 -0.398876 -0.329959 0.891354 -0.310829 0.688869 0.685133 0.236752 0.912838 0.371889 0.168599 0.853927 -0.450341 0.260773 0.747956 0.660545 0.0651308 0.870565 -0.061018 -0.488255 -0.112637 -0.564033 -0.818034 -0.519228 0.854509 -0.014678 0.387353 0.0745589 0.918912 0.584266 -0.539249 -0.606501 -0.335295 0.0404309 0.941245 -0.425831 -0.874818 0.231002 -0.0534927 0.173711 0.983343 -0.0450232 -0.393983 -0.918014 -0.122645 0.595253 -0.794124 0.884611 0.389666 0.256171 -0.446112 -0.497575 0.743911 0.493551 -0.173101 0.852317 0.939662 0.324475 0.108404 -0.184645 -0.830399 0.525684 -0.933708 -0.141444 -0.328911 0.833039 0.522884 0.180661 0.805203 0.491305 0.332064 -0.0233972 -0.943331 -0.331027 -0.724353 -0.127266 0.677581 -0.0292312 -0.997926 -0.0573536 -0.534925 0.844234 -0.0335246 -0.601376 -0.0442302 -0.797741 0.0112593 0.492991 -0.869961 -0.485277 0.870552 -0.0815235 0.875975 -0.46161 0.139946 -0.183939 0.549702 0.814858 -0.367598 0.799824 -0.474503 -0.00484739 -0.15476 -0.98794 -0.0778759 -0.913985 0.398204 0.572748 0.664594 -0.479869 -0.924666 -0.309076 -0.222409 -0.515505 -0.292605 -0.80538 0.0304084 -0.529107 -0.84801 -0.488881 -0.537541 0.687056 -0.26838 0.863308 0.4274 0.640046 0.581803 -0.501843 -0.39347 -0.869794 -0.297726 -0.290677 0.660981 0.691817 -0.989087 0.0949427 0.112662 -0.805515 -0.431659 0.405974 -0.113111 -0.484334 -0.867541 -0.107101 0.134379 0.985125 -0.594702 -0.628792 0.50095 0.21677 -0.722917 0.65605 -0.394806 -0.745937 -0.536382 -0.429987 0.7141 0.552425 -0.0401961 -0.890243 0.453708 -0.798885 0.562621 0.212698 -0.00991962 0.407515 0.913145 -0.22771 0.793025 -0.565031 -0.437974 0.885646 0.154307 -0.833794 0.387325 0.393404 0.506003 0.561297 -0.65491 -0.167836 -0.675176 0.71831 0.514294 0.856287 -0.0476887 -0.841742 0.369319 -0.393795 -0.805755 -0.452953 0.381566 -0.38825 -0.87009 -0.303654 -0.243937 0.00281513 -0.969787 -0.278125 0.907608 -0.314475 0.954778 0.253977 0.154581 -0.18003 0.977118 -0.113265 0.265922 0.827135 -0.49511 -0.390123 -0.481651 -0.78474 -0.86183 0.506302 -0.0301218 0.698383 0.607462 -0.378484 -0.908129 -0.208923 -0.362839 -0.703052 0.0218962 -0.710801 0.206233 -0.937802 0.279276 0.158763 0.601109 -0.783238 -0.894395 -0.132462 -0.427213 -0.412685 -0.893514 0.176986 -0.629622 0.753988 -0.18729 -0.771873 -0.245697 0.586383 0.332296 0.151141 -0.930986 0.183006 0.0458658 0.982041 -0.884978 0.435279 0.165369 -0.721745 -0.687042 0.0840065 0.564918 0.781503 0.264803 -0.982357 0.0879273 0.165054 -0.768844 0.00159215 0.639434 -0.482132 -0.400058 -0.779425 0.282231 -0.655088 0.700861 0.845721 -0.402556 -0.350291 -0.482452 0.596145 -0.641757 0.782517 -0.622534 0.0109012 -0.351846 -0.640561 -0.682558 0.53076 0.698376 -0.480171 0.386789 -0.894403 -0.224581 -0.694384 0.527444 -0.489524 -0.92422 -0.342522 0.168805 0.486556 -0.869429 0.0857708 0.221118 -0.10654 0.96941 -0.798399 -0.551731 0.241149 0.239774 0.93477 -0.262132 0.641245 -0.727936 0.242722 -0.961326 -0.0726402 0.265662 0.953509 -0.300638 -0.0209142 -0.183127 0.575442 -0.797076 0.472106 -0.549074 -0.689662 -0.78217 0.440606 0.440541 0.787393 0.00690589 0.616412 -0.371633 0.00188215 -0.928378 0.15838 -0.571808 -0.804954 0.958298 -0.228533 0.171571 -0.2606 -0.698008 0.666988 0.277561 -0.713518 0.643313 -0.523987 0.648368 0.552319 -0.791786 -0.280326 0.542671 0.580665 0.660875 0.475471 -0.237631 -0.336929 0.911049 0.421562 0.856371 -0.298184 -0.247702 -0.935389 -0.252372 0.498985 -0.0509129 -0.865114 0.900634 -0.179204 0.39591 0.471509 0.181255 -0.863033 -0.298857 0.468422 0.831424 -0.338491 0.676682 -0.653855 -0.784532 -0.598381 -0.162631 -0.360326 0.197443 0.911691 0.591904 -0.492097 -0.638349 0.233429 0.972372 0.00190741 -0.970307 0.223897 0.0915112 0.748864 0.606957 0.266094 0.11968 -0.846148 -0.519336 -0.714635 -0.228055 0.661277 0.150234 0.627303 -0.764147 0.282575 -0.935764 -0.210943 -0.321805 -0.471904 -0.820821 0.746564 0.342889 0.570148 0.432634 -0.86364 -0.258754 0.809548 0.100773 0.578339 -0.216614 0.967391 -0.131276 -0.773245 0.235425 -0.588784 0.171724 -0.47641 -0.86229 0.785944 0.440742 0.433634 -0.908598 -0.374646 0.184633 0.122815 0.563124 -0.817195 -0.0737151 -0.743179 -0.665019 0.0283292 0.527707 0.848954 0.996868 0.0770733 -0.0177163 -0.0526711 0.915562 -0.398713 0.55046 -0.418765 0.722239 0.397914 0.833173 0.38404 -0.95127 0.0225303 0.307536 0.976548 0.193472 -0.0944591 0.521545 -0.496443 -0.693927 0.851635 -0.162293 -0.498376 0.111095 -0.987873 0.108463 -0.00843927 -0.121247 -0.992586 0.40606 -0.513656 -0.755826 0.780106 0.225506 0.583593 0.41411 -0.768326 -0.488045 -0.172394 0.0660185 0.982813 0.842287 0.524845 0.122845 0.0121703 -0.848353 -0.529292 0.0794034 0.950541 0.300278 -0.822912 0.551118 0.13815 -0.945648 -0.0240838 -0.324299 -0.199157 0.0150709 0.979852 0.182452 -0.852161 0.490441 -0.610218 -0.433223 0.663288 0.111561 0.216654 0.969853 -0.321235 0.946887 -0.0145636 -0.491976 -0.798252 0.347497 -0.147735 0.753412 0.640737 0.580158 0.359556 0.730847 -0.965477 -0.221555 0.136993 -0.366172 0.873025 -0.322096 0.568752 0.0856787 -0.818034 0.830001 -0.14801 0.537765 -0.390851 -0.814424 0.428893 0.295097 0.336379 -0.894297 0.831962 0.41065 -0.373102 0.647106 -0.602141 0.467633 -0.651128 0.687721 0.321048 0.54936 -0.679025 -0.486958 -0.489724 0.708126 -0.508653 0.71533 -0.66462 0.215831 0.256171 -0.118216 -0.959376 -0.785308 -0.578145 0.221449 0.881937 -0.413057 0.22709 0.217086 -0.429939 -0.876371 0.112587 -0.865667 0.487796 -0.134202 0.414244 -0.900218 0.5694 0.581467 0.581102 0.157882 -0.0698418 0.984985 -0.803031 -0.595117 -0.0312592 -0.597744 0.304193 -0.741734 -0.960722 -0.0644214 0.269933 -0.339226 -0.118488 -0.933213 0.973374 0.145105 0.177449 0.133343 -0.105109 0.985481 -0.429273 -0.544731 0.720412 0.994324 0.10389 -0.022934 0.703576 0.111 -0.701897 -0.16368 -0.817063 0.552827 0.169665 -0.129633 -0.976939 -0.95918 -0.0411841 -0.279781 0.186684 -0.385233 0.903739 0.852399 -0.436379 0.288078 -0.0574983 -0.674458 -0.736071 -0.00827155 0.852681 0.522366 0.479096 0.114294 0.870289 0.581621 0.530932 0.616302 -0.993095 0.00581046 0.117168 -0.0366281 -0.325286 0.944906 0.748731 0.656272 0.0933162 0.0817029 0.936287 -0.341602 -0.904337 0.109086 0.412644 0.442291 -0.589454 0.675961 0.645544 0.389488 0.656941 0.556875 0.812622 -0.171862 0.502563 -0.749769 -0.430439 0.518811 -0.416693 0.74646 -0.85968 -0.36376 -0.358648 -0.271987 -0.790651 0.548538 0.870061 -0.390516 0.300817 0.812457 0.582462 -0.025524 -0.184513 -0.0280199 0.98243 -0.661074 0.730548 0.171114 -0.845965 0.026833 -0.532563 -0.771897 -0.187181 0.607567 -0.447323 -0.741042 -0.500758 -0.477085 -0.696322 -0.536215 0.515416 -0.744714 -0.423966 -0.773802 0.239741 0.586306 0.992501 -0.0483936 0.112248 -0.00990998 0.861239 0.508103 -0.808188 -0.578778 -0.10885 -0.857444 0.500724 0.118598 -0.847534 -0.360515 -0.389505 -0.264528 -0.959866 0.0931754 0.800248 -0.27683 -0.531947 0.68029 -0.729736 -0.0684913 -0.0721796 -0.283896 -0.956134 0.146824 -0.964791 0.218224 0.0354942 -0.0315899 -0.99887 -0.981312 -0.191939 0.0136827 0.538276 -0.793728 0.283292 -0.13456 0.0637346 0.988854 0.79136 0.600378 0.115308 -0.329095 0.739653 -0.587034 -0.523937 -0.478814 -0.704434 0.292453 0.927683 -0.232113 0.343149 0.904361 0.253732 0.372922 -0.760303 0.531853 -0.488408 0.862928 0.129664 -0.392592 0.338758 -0.855053 0.430762 -0.891405 -0.140856 -0.428492 -0.792908 0.433234 0.559499 0.482809 -0.673689 -0.355592 0.122067 0.926636 -0.546993 -0.0959062 0.831626 0.668889 -0.533243 0.517918 0.485775 0.0886347 0.869579 -0.701645 -0.478079 -0.528332 0.745255 -0.17289 -0.643976 0.362017 0.177261 0.915162 -0.185675 -0.449925 -0.873551 0.407918 -0.640559 -0.650605 -0.368025 -0.8337 0.411705 0.544498 -0.699425 0.462954 -0.681997 0.699678 -0.21291 -0.512689 -0.447752 0.732577 0.39785 -0.906511 0.141258 0.642645 0.694651 0.323214 -0.144724 0.183966 0.97222 0.689481 -0.392153 0.60896 0.796994 -0.337329 0.501009 -0.436341 -0.0311204 0.899243 0.919539 0.15216 -0.362347 0.122545 0.489488 -0.863356 0.148604 0.972895 0.177178 -0.231083 -0.0776216 0.969833 -0.824287 0.46138 -0.328146 -0.173734 0.983901 0.0419044 -0.777868 -0.584192 -0.231606 -0.75983 0.178847 0.625037 -0.148195 -0.953599 0.262084 0.186823 -0.636697 0.748141 0.0696014 0.33798 0.938576 -0.814288 -0.130285 -0.565651 -0.117221 0.974676 0.190436 0.340387 -0.329942 0.880497 0.185807 0.610234 -0.770124 0.623392 0.777749 -0.0805571 -0.559106 0.821917 -0.108871 -0.230626 0.557124 0.797762 0.32848 -0.264792 0.906634 0.287946 0.868166 0.404196 -0.0514086 -0.959789 -0.275976 -0.869889 0.421689 0.255872 0.741517 0.66471 -0.0911749 0.994348 -0.103107 0.025333 -0.719769 -0.424556 -0.549258 -0.874792 0.120159 0.469363 0.465141 -0.325373 -0.823272 -0.870063 -0.308696 0.384314 0.90481 0.178778 -0.386468 0.782053 -0.468247 0.411264 -0.296415 -0.664501 0.685986 0.79407 -0.0172834 -0.607581 0.892595 0.195719 0.406164 -0.293845 -0.499395 -0.815021 -0.745383 0.13887 -0.652011 0.41461 0.894728 0.166015 0.693816 -0.489831 0.527907 0.322474 -0.944864 0.0569438 0.938627 0.179859 -0.294331 -0.154748 0.902828 0.401191 -0.00160088 -0.345596 -0.938382 -0.465994 0.404254 -0.787037 -0.791947 -0.184702 -0.581984 0.687998 0.53218 -0.493399 0.00762833 -0.792904 -0.609298 -0.192544 0.58147 -0.790455 0.279044 -0.746501 0.604045 -0.935165 -0.305891 -0.178599 0.791524 0.246944 0.559025 0.65917 0.61653 -0.430564 -0.470905 0.198786 -0.859496 0.176334 0.934745 -0.308478 0.89295 0.240975 -0.380226 0.716615 -0.693769 -0.0717477 0.848451 0.163096 0.503518 -0.445901 -0.721151 0.530201 -0.746895 0.606246 -0.273155 0.250025 0.591574 -0.766503 0.94886 -0.0371823 -0.313498 -0.649542 -0.732528 -0.203708 -0.32013 -0.802266 -0.503872 -0.106055 0.705614 -0.700614 -0.424496 -0.878235 0.220243 -0.989679 -0.134552 0.0493169 -0.7634 0.644896 -0.0364713 -0.464966 -0.260007 -0.846287 -0.0476099 -0.897142 0.439169 -0.423169 -0.206882 0.882116 0.319115 -0.944593 -0.0768725 0.614937 0.157286 -0.772731 -0.0374804 -0.600116 -0.799035 -0.652418 -0.757403 -0.0263051 -0.616213 0.787086 0.027888 -0.64822 -0.398099 0.649098 0.000424025 0.976775 0.214266 0.546079 0.338216 0.766425 0.292618 -0.628065 0.721048 -0.253461 -0.966281 -0.0453772 0.176928 -0.981884 -0.0678233 0.935256 0.338934 -0.102079 0.966012 -0.19408 -0.170746 0.296817 0.951532 -0.0805353 0.38713 0.123743 0.913684 0.552577 0.00774274 -0.833426 0.820239 -0.0534336 0.56952 -0.163284 0.0740655 -0.983795 -0.330473 0.335884 0.882026 0.618671 0.781074 0.0846717 -0.362574 -0.509381 0.78043 -0.89378 0.447873 0.0238029 0.987255 -0.118721 -0.105983 0.00779445 0.51897 0.854757 0.187354 0.982205 -0.0130973 -0.450623 -0.816152 -0.361712 0.17956 0.463236 -0.867854 -0.234842 -0.150311 0.960342 -0.0269496 -0.149825 -0.988345 -0.909986 -0.27475 -0.310544 0.133696 0.225634 -0.964995 -0.383553 0.920579 -0.0736266 -0.158459 0.542475 0.824992 0.932682 -0.350405 -0.0855605 0.164087 -0.384457 0.908443 -0.132481 0.650969 -0.747455 -0.828842 -0.418362 -0.371476 0.947209 0.125944 -0.294844 -0.031772 -0.00136889 0.999494 -0.230317 0.856407 0.462084 0.0842085 -0.166813 0.982386 0.0845083 -0.726909 0.681515 0.712565 -0.0120581 -0.701503 -0.0781136 0.629182 -0.773323 -0.596121 -0.576498 -0.558829 0.856874 0.151429 0.492784 0.493197 -0.233701 -0.837938 -0.529786 -0.189281 0.82674 -0.0158932 -0.0768141 0.996919 0.481082 -0.182825 -0.8574 0.303407 -0.946893 -0.106476 0.916507 0.199649 -0.346634 0.478494 0.64776 0.592833 0.819236 -0.190417 -0.540919 0.85256 0.484333 0.196375 0.0333239 0.67475 0.737294 0.756489 -0.529417 -0.383982 -0.964446 -0.257037 0.0614528 0.051327 -0.99719 0.0545747 -0.00405511 0.23361 -0.972322 -0.931749 0.312864 -0.184284 -0.712862 -0.583807 -0.388584 0.26937 0.334583 0.903047 -0.00778575 -0.992271 0.123847 0.870266 0.491996 -0.0240189 -0.409851 0.873442 -0.26291 0.876742 0.476318 0.0666698 0.317308 -0.770244 -0.553209 0.671274 0.703587 -0.233144 0.774861 -0.0743831 0.62774 0.834546 0.0484893 0.548801 -0.328669 -0.86408 0.381238 -0.259642 -0.326002 -0.909015 -0.59318 0.476959 0.648573 0.371439 -0.255978 0.892473 0.471173 -0.590547 0.655172 -0.671219 0.717931 0.184496 0.451119 0.44833 0.771681 -0.370432 -0.595544 0.712817 -0.853945 0.248822 -0.457018 -0.669842 0.350222 0.654718 0.726916 0.335543 -0.599169 -0.83877 0.532219 0.114922 -0.689833 0.479874 -0.542081 0.731056 0.677319 -0.0824391 -0.842551 -0.28643 -0.456142 0.324634 0.582133 -0.745476 -0.15316 0.81205 -0.563131 -0.182981 -0.796004 -0.576971 -0.439231 -0.33649 0.832977 -0.169078 -0.951484 -0.257081 0.361779 -0.357108 -0.861156 0.453987 -0.431004 0.779828 0.530857 0.594377 -0.604076 0.746237 0.260643 -0.612532 0.538545 0.74543 0.392815 0.826757 -0.555994 0.0856926 -0.24904 0.0237954 -0.968201 -0.554951 -0.689111 -0.465999 0.985963 -0.150918 -0.0714179 -0.664209 0.277614 0.694088 -0.961259 0.120735 -0.2478 -0.29705 -0.156878 -0.941887 -0.0859682 -0.996261 -0.00853076 -0.628725 -0.642112 0.438631 0.643406 0.216277 0.734338 0.983037 -0.179181 -0.0391542 -0.343875 0.186651 0.920278 -0.0250711 0.285808 -0.957959 -0.161741 0.93496 -0.315738 -0.421101 0.160467 -0.892706 -0.25936 -0.774494 -0.576968 -0.873273 -0.410136 0.263028 -0.988788 -0.0308334 -0.146111 -0.992088 -0.118692 0.040919 -0.1731 0.139938 -0.974912 -0.201088 -0.321876 0.925181 0.684031 -0.72935 -0.0122475 0.174189 0.9545 -0.242051 0.995021 -0.0631818 -0.0770753 -0.289238 0.846952 0.446109 -0.225977 0.69639 0.681158 0.883734 0.46776 -0.0146866 -0.995992 0.0894447 -2.00252e-05 -0.183503 -0.398588 0.898585 -0.0478805 0.561497 -0.826093 -0.861749 -0.40458 -0.30611 0.633261 0.540725 -0.553712 -0.934599 0.0404575 0.353395 -0.765803 0.573493 -0.29095 -0.3723 0.168032 0.912775 0.377372 -0.550375 -0.744767 0.647354 -0.739893 0.183007 0.971552 -0.21531 -0.0986313 -0.113589 -0.893884 -0.433669 0.14396 0.0191682 -0.989398 0.340599 0.0639887 -0.938029 0.185778 0.0742046 0.979786 -0.953641 0.0619461 0.294503 0.157514 0.824004 0.544249 0.0367447 0.857202 -0.513668 0.907153 0.39182 0.153464 -0.525152 0.6709 0.523553 0.281944 -0.11708 -0.95226 -0.159566 0.404815 -0.900368 -0.428042 0.511578 0.745029 -0.804255 0.542349 -0.242965 0.931754 0.280583 -0.230451 -0.19918 -0.782423 -0.590036 0.802377 -0.0368272 -0.595681 0.871624 -0.337422 0.355554 -0.750783 0.57947 -0.317078 -0.152196 -0.968016 -0.199454 0.475051 -0.641644 0.602179 0.0692474 -0.300595 0.951235 0.0350016 -0.998795 0.0343957 0.490024 -0.426761 0.7601 -0.92922 -0.343921 0.135158 0.583226 0.108768 -0.804995 -0.16603 0.850492 0.499096 0.174989 -0.47457 -0.862648 0.262072 -0.887776 0.378381 -0.923421 0.15013 -0.353206 0.16074 0.842172 -0.514694 0.908738 0.356957 -0.216281 -0.671364 -0.694296 -0.259275 -0.920101 -0.37643 -0.108231 -0.0612711 -0.544257 -0.836678 -0.988173 -0.148513 -0.0381759 -0.868851 -0.418183 0.264991 -0.78415 -0.310965 0.537038 -0.530759 0.84452 -0.0712836 0.344571 0.427911 -0.835562 0.519039 -0.246861 -0.818327 0.85482 -0.298834 0.42424 0.302529 -0.919061 -0.252592 -0.684733 -0.104922 0.721202 -0.635051 0.758852 0.144407 0.48224 -0.403316 0.777677 -0.165438 0.809669 0.563087 -0.995399 0.0862624 -0.0417101 0.994921 -0.0584786 0.0819243 -0.195653 0.198212 0.960433 -0.977377 0.208637 0.0347067 -0.246779 0.12815 0.960561 0.493088 0.332961 0.803742 -0.414688 -0.89034 0.187958 0.660361 -0.678367 -0.322089 -0.187559 0.406417 0.89423 -0.539917 -0.81202 -0.221616 0.153242 -0.987716 -0.0305628 -0.639729 0.151918 -0.753437 0.954912 0.15741 -0.251725 0.847436 -0.0527199 0.528273 -0.143101 0.834352 0.532333 -0.291779 -0.842554 -0.452733 0.389711 -0.918172 -0.0713144 -0.130319 -0.488198 0.862948 0.449748 0.874426 -0.181953 -0.0897448 -0.377861 -0.921503 0.556126 0.499536 0.66422 -0.70958 0.696816 -0.104614 0.821851 0.51809 -0.236947 0.634024 -0.682438 0.36372 -0.850018 -0.42725 0.3081 -0.502985 0.717067 -0.482515 -0.342408 0.294521 0.892196 0.585735 0.807112 0.0740604 0.732681 -0.581892 -0.352959 0.675585 0.220489 0.703541 -0.600495 -0.245593 -0.76098 0.452534 -0.719406 0.526941 -0.18142 0.665189 0.7243 -0.802043 0.20057 0.562582 0.362896 0.656974 0.660827 0.225994 -0.479626 0.847871 -0.920779 -0.341241 0.189001 0.994039 -0.0442703 0.0996368 0.826015 -0.363774 0.430543 -0.0849147 -0.827671 0.554752 -0.541029 0.650587 -0.53294 0.496767 -0.674626 0.545987 -0.8588 -0.482908 -0.171061 0.829432 0.492097 -0.264353 -0.574256 0.348601 0.740748 0.320182 -0.925378 0.202879 -0.143755 0.0532717 -0.988178 -0.730028 0.672903 -0.119418 0.459004 -0.499424 0.734773 -0.309789 0.796743 0.518875 0.382177 -0.530187 -0.756863 0.704107 -0.361695 0.611073 -0.777969 -0.510012 0.366949 0.599051 -0.599424 0.530875 0.694877 -0.486139 -0.52992 0.616518 0.725702 -0.305389 0.737352 -0.623921 0.25891 0.510877 0.499214 -0.699851 -0.863046 -0.38235 0.330091 -0.689005 0.554499 -0.466693 0.523456 0.0250801 0.851684 0.243424 -0.852513 0.462565 -0.280032 -0.877593 -0.389118 -0.598496 -0.4815 -0.640281 0.0566065 0.990857 -0.122465 -0.518801 0.140408 -0.843286 0.493923 -0.727746 0.475842 0.974775 -0.152593 0.16288 0.675453 -0.0967494 -0.731029 -0.72568 0.601773 0.333553 0.443416 -0.0122647 0.896232 0.984163 -0.163419 0.0686898 -0.401652 0.805879 -0.435011 -0.863517 -0.43922 0.247838 0.874504 0.320267 0.364242 -0.643936 0.102416 -0.758194 0.293039 -0.177395 -0.939499 0.372749 -0.501946 0.780454 -0.114587 -0.473291 0.873422 -0.822616 -0.568595 -0.00144863 0.574411 0.742377 0.344859 0.726165 0.479309 -0.492897 -0.0741488 0.50681 0.858863 -0.639121 0.750256 0.169235 0.131268 -0.931143 -0.340209 -0.64636 0.0229335 -0.762688 -0.895617 -0.283866 -0.342477 0.395445 0.707009 0.586312 -0.828374 0.555006 -0.0759304 -0.784758 0.0129711 0.619667 0.391197 0.471752 -0.790199 -0.603016 0.714267 -0.355239 -0.875005 -0.406983 0.262167 0.59977 0.604522 0.524241 0.834485 0.49311 0.245921 -0.578951 0.81293 -0.0629354 -0.119192 0.979187 0.164275 -0.629893 0.529304 -0.568394 0.325599 0.9388 0.112428 -0.601294 0.750444 0.274371 0.88909 0.097326 -0.447265 -0.779295 -0.428429 -0.457327 -0.241416 0.712045 0.659325 0.475944 0.534601 0.69834 -0.48554 0.785426 -0.383871 -0.279174 -0.248307 -0.92758 -0.247104 -0.954461 -0.167163 0.151474 0.727498 -0.66918 -0.600197 0.398307 -0.693625 -0.812575 -0.567278 0.133857 0.650087 0.0894628 -0.754575 -0.819009 0.515941 0.251054 -0.437742 -0.156584 0.885361 0.381267 -0.672525 0.634308 0.582506 -0.494018 0.64547 0.21929 0.93498 0.27879 -0.709761 0.177759 -0.681646 