# vtk DataFile Version 4.0
Generated by libgran
ASCII
DATASET POLYDATA
POINTS 1686 FLOAT
-32.9757 1.52821 6.71769 -31.7354 0.698172 7.9398 -33.6692 1.636 5.07698 -32.5441 2.51048 6.15894 -34.3003 -1.165 8.11903 -34.1593 2.20831 4.01923 -31.7067 -0.298568 12.6628 -31.6374 -1.98459 13.1819 -32.1951 0.39532 11.639 -32.2392 -0.705547 10.2291 -31.6911 0.941482 10.2714 -31.0307 1.02495 9.14191 -31.3953 -3.56713 15.7527 -30.5163 -3.27231 14.7995 -30.5062 -2.12576 14.7944 -29.7662 -0.595581 14.3642 -29.138 -0.340918 15.0995 -29.081 0.219764 13.6925 -32.9566 -4.23173 13.7341 -35.0254 -4.7934 15.1127 -33.9255 -4.31227 14.5412 -34.1764 -4.6047 16.247 -35.8101 -5.2475 14.1334 -33.5618 -4.94902 17.2331 -33.803 -3.59447 17.7266 -34.1204 -3.15492 18.8042 -32.8383 -3.12519 19.1275 -32.5732 -4.6057 21.829 -33.6588 -3.69589 22.4472 -32.8657 -3.6947 20.7731 -32.4787 -5.84067 22.3127 -33.4893 -7.30921 21.9941 -33.4353 -3.67993 24.116 -32.073 -4.15494 19.4947 -32.8479 -7.98291 20.0188 -33.5699 -9.19287 19.7856 -31.5644 -8.31949 19.9329 -30.4595 -8.40756 19.8989 -30.0425 -7.1382 21.1198 -30.8038 -6.50984 22.5583 -29.7399 -5.69574 21.213 -32.8228 -10.2563 20.8286 -24.5826 -12.4535 23.4201 -25.4963 -12.0117 22.5612 -26.7635 -12.9416 22.4778 -24.2103 -11.6576 25.206 -25.5988 -11.6362 25.6222 -28.1956 -13.867 22.5863 -29.986 -11.4961 19.8784 -28.9462 -10.9685 19.096 -29.5146 -12.6149 20.4208 -31.0366 -12.3607 20.7506 -28.7906 -13.584 21.4877 -31.9152 -11.3453 21.5353 -27.96 -12.2581 18.2012 -27.881 -13.5412 17.0924 -27.0129 -15.6833 17.8338 -26.641 -15.5624 16.5627 -27.8479 -14.7833 16.5959 -25.7606 -15.0415 18.8379 -24.815 -15.1102 16.2565 -24.2106 -14.8251 19.3213 -24.1649 -15.9058 19.6583 -23.9996 -13.553 12.5141 -25.011 -14.0354 12.244 -25.334 -12.5136 12.8786 -22.7403 -13.5594 12.9408 -22.5866 -14.3549 11.4965 -22.6708 -13.2434 14.7769 -23.4441 -13.9166 16.0412 -36.1411 15.658 3.50127 -36.3592 15.1369 1.59904 -36.3418 14.1485 1.44835 -35.1586 16.1529 4.65638 -34.6232 16.0014 5.60216 -33.6631 16.2804 5.61663 -34.0518 15.7858 6.39397 -39.5231 14.6584 0.99145 -40.3098 15.3752 0.195593 -38.4773 15.9599 0.545732 -38.8434 14.2921 1.79123 -39.8028 12.899 1.22267 -40.5798 11.875 1.63874 -41.3325 10.7972 2.33905 -45.5674 11.4868 1.68779 -45.7703 10.5715 0.981428 -46.143 12.8137 0.800916 -44.9388 13.0061 2.8245 -42.2763 10.2992 2.2542 -41.3429 9.23102 1.48655 -41.6729 9.46379 0.223378 -41.4032 8.48899 -0.309043 -41.3314 7.75745 1.09197 -41.5392 10.9077 -0.773953 -43.0226 9.97983 -0.33215 -41.6147 11.2551 -2.06513 -41.4721 6.30851 0.682263 -41.8079 6.34409 2.26722 -42.6192 7.68698 -6.59813 -41.8106 7.36297 -7.60265 -42.863 5.94767 -7.2767 -43.1322 9.19634 -8.2852 -43.899 8.64393 -8.78575 -44.1128 9.47807 -7.09416 -45.0787 8.27822 -9.42674 -44.8795 8.92566 -7.5947 -43.8717 4.48392 -6.95498 -43.7017 9.84249 -4.99421 -44.4232 9.82024 -6.12357 -43.798 9.86075 -3.77095 -44.1644 9.71908 -2.71737 -44.9336 9.43131 -1.9551 -44.0767 9.26669 -1.34206 -45.9539 10.8105 -2.2248 -44.3685 10.5943 -0.262867 -41.4802 3.84127 -9.4773 -40.2629 3.94435 -10.6739 -40.8026 2.77634 -9.1862 -41.7229 5.1 -9.12388 -42.0527 6.32892 -9.55425 -43.6953 6.29859 -9.40543 -41.3289 1.25704 -8.65345 -44.8094 5.87222 -9.88253 -43.8086 1.02317 -5.81831 -43.1256 2.16576 -6.06476 -44.2647 2.90457 -6.2626 -41.9168 3.21332 -6.5299 -25.6746 13.0682 19.6207 -26.1612 13.9876 20.4489 -24.6547 14.2412 19.9671 -27.0051 12.2869 18.5726 -28.8077 12.6378 19.9087 -29.3634 10.2035 18.1086 -29.6561 11.7847 17.1528 -29.9693 9.08265 17.9761 -29.3572 8.34124 18.478 -28.9206 11.7401 16.4767 -31.5698 8.55446 18.2987 -30.6812 9.10382 16.6901 -31.9634 8.25601 19.912 -26.6636 4.07952 13.2228 -26.4795 2.96856 13.0655 -26.9979 5.25157 13.7544 -28.5345 4.54052 13.6192 -27.9489 2.21461 13.7638 -27.6641 1.89021 12.3249 -28.3952 1.51225 15.0933 -27.2959 1.12958 11.168 -26.9431 1.33857 10.1753 -29.6668 8.73491 15.6194 -30.8747 8.69823 15.0648 -28.4351 8.88767 14.9788 -30.8991 7.20247 14.0941 -32.0286 8.60798 13.9964 -31.4246 5.96203 14.01 -30.0173 5.46217 13.7994 -33.4375 6.69489 5.68991 -34.5556 6.29556 5.09133 -32.8441 7.52027 6.29432 -32.5287 5.86147 6.86839 -36.2959 5.85237 5.81108 -34.398 4.17639 6.85359 -37.4407 6.44926 5.38894 -37.318 6.41352 3.87954 -40.5713 5.34677 4.26226 -39.0232 4.81257 4.27963 -41.7503 5.83815 3.89666 -42.1813 5.24344 2.21282 -37.9276 6.11626 3.09156 -38.4127 4.10779 5.51774 -32.5816 5.57086 11.7871 -31.9791 7.90941 10.8714 -33.2222 8.17201 12.0762 -33.3719 8.4873 13.127 -34.1296 7.4409 13.5581 -32.4114 10.0283 13.3286 -34.5364 6.11971 14.1722 -34.7863 3.41381 9.40071 -34.3287 3.20361 10.6313 -33.8931 3.62778 7.63956 -33.6682 3.39657 11.8473 -25.9657 23.2392 28.4367 -26.3561 21.9527 28.9454 -25.9464 22.7736 30.0064 -25.7387 23.4213 27.1393 -26.1424 24.8771 27.7724 -26.9225 26.0457 27.8655 -23.1707 23.508 28.3146 -22.8143 23.7389 30.6212 -23.6527 24.3352 31.81 -22.556 23.5192 29.3355 -22.1269 23.2188 28.3562 -23.9391 25.3298 28.8988 -23.6079 24.4668 33.0394 -25.6562 27.3976 33.2621 -25.3157 28.364 34.1123 -26.3571 29.2088 33.3984 -25.988 26.7524 32.4238 -25.0226 26.0735 32.1382 -23.7483 28.9399 35.1489 -25.7396 25.1927 31.4774 -21.0189 25.9016 35.258 -21.1126 24.6014 35.5204 -20.926 26.9978 35.1994 -19.9435 27.6958 36.009 -20.9981 28.4726 35.525 -18.4137 27.4536 36.789 -18.5828 28.6685 36.3415 -22.0192 29.3741 35.3228 -20.0831 29.5595 34.9697 -27.9579 23.6058 33.2637 -28.4694 25.8353 33.6687 -30.4889 24.693 35.7655 -30.3583 23.5803 34.8896 -29.9679 22.9457 33.1395 -26.649 23.3822 33.1348 -31.6903 20.7011 31.2143 -32.2832 21.5218 32.6903 -30.432 20.5056 30.8276 -29.5729 20.2142 30.4069 -32.3936 22.5429 33.9684 -33.282 22.1066 33.8254 -35.0733 22.5611 33.6684 -35.8407 22.478 32.3785 -35.4347 21.6202 31.8919 -36.8616 23.8526 31.6051 -37.3226 23.6364 33.2493 -37.8005 24.3378 32.2649 -36.4776 21.6847 33.7268 -37.3676 24.6234 34.8494 -37.5795 25.6616 32.9617 -41.2765 25.1493 36.2518 -40.7272 26.2595 35.7683 -39.7722 25.5013 35.2651 -38.3774 25.4878 34.96 -41.2642 25.4763 34.0749 -37.2668 25.7149 34.5811 -35.6242 8.41996 23.0469 -35.6062 7.37308 23.8657 -37.0383 8.52091 23.9118 -34.3338 8.3219 22.0245 -35.5017 9.59337 22.1783 -32.984 7.12288 21.557 -32.0362 6.46199 20.6769 -32.5875 5.74462 19.9763 -30.9509 6.05605 19.7988 -33.1529 4.72064 19.344 -33.0482 4.21992 20.6856 -29.091 4.53737 19.0385 -28.7795 5.57339 18.7035 -40.4161 9.06191 23.21 -40.8653 8.30847 24.2093 -42.3113 7.88319 23.5991 -40.6917 10.4973 23.5279 -42.0362 10.1878 23.0182 -38.8995 6.69811 21.2637 -39.0474 8.25328 21.9973 -38.2103 6.34045 22.0754 -37.5205 5.94947 22.6849 -35.9573 6.37167 21.7726 -36.5599 5.31769 23.0817 -30.0173 15.7368 22.7026 -31.0963 15.7684 23.4791 -29.8551 15.4635 24.5739 -29.012 15.2485 21.9341 -29.9767 14.9513 20.9778 -32.0742 16.5487 23.7759 -31.5676 17.5474 25.1332 -30.4627 18.237 26.5666 -33.4342 10.3598 20.4994 -32.3607 10.099 21.1989 -31.7785 11.1853 20.3121 -34.4523 11.2121 20.4249 -35.2596 10.2605 21.2425 -30.5377 11.3623 20.9782 -30.4325 12.3565 20.9579 -29.3354 19.6099 26.9453 -29.3677 18.0429 26.7123 -30.0863 19.7541 29.1438 -31.5033 19.7613 28.0873 -29.0774 16.5153 26.8607 -28.3876 15.3861 27.7113 -31.2752 19.9912 25.7221 -32.223 19.3869 26.78 -31.1446 21.311 25.8168 -32.6681 22.0369 25.4595 -34.2832 21.8658 25.5634 -34.2347 23.1486 23.8164 -5.98692 25.1119 39.3614 -5.00278 25.0603 39.5311 -7.24521 24.6734 39.3726 -5.46021 24.335 39.0165 -8.07094 25.8535 40.3471 -8.85554 24.3844 39.7835 -8.90128 25.4771 39.9362 -8.92614 26.3704 40.385 -4.75923 23.3348 39.3278 -3.65228 23.9628 38.7186 -4.37082 21.6453 39.4804 -9.68499 23.4557 38.7333 -5.76917 19.9592 40.8306 -5.78783 20.8254 39.5601 -6.67137 18.8616 41.0942 -7.17576 17.9161 41.4223 -3.88903 21.0245 40.4657 -1.04111 25.261 39.7736 -2.10472 25.3777 38.9842 -2.33657 24.1605 38.9506 0.106055 26.7377 39.6106 -2.00737 26.9878 38.5236 -2.49666 22.9145 38.851 -2.1143 28.7841 38.7542 0.669613 31.0728 39.1293 1.39479 29.8779 39.9939 -2.09156 30.411 38.3179 2.42807 29.377 39.2921 -2.99464 29.8771 39.6646 -21.0968 32.3793 42.4581 -19.857 31.9591 42.2248 -21.2112 32.5471 44.1482 -22.3317 31.7893 42.786 -18.6268 31.0935 44.7678 -19.0772 31.572 46.274 -18.0028 30.3477 43.3331 -15.5993 29.3682 41.5955 -16.4242 29.2633 42.633 -14.6452 28.0167 41.5625 -17.4828 29.1467 42.7933 -17.3623 28.0806 43.8364 -16.4276 27.5743 43.3274 -13.4955 28.0757 42.4005 -14.3142 27.6205 43.052 -17.2515 27.3686 45.2567 -11.4393 24.6726 43.4193 -12.693 25.0052 43.7212 -11.2694 25.0871 42.5252 -10.5012 24.7981 43.0965 -13.0343 26.0328 44.6989 -13.4631 25.0516 45.553 -13.6965 27.4502 44.4008 -10.5077 26.1955 42.1502 -15.2717 27.2829 43.7794 -10.1943 28.0871 39.9113 -9.58039 26.9263 39.6582 -10.8341 27.747 41.2891 -10.9614 28.7339 41.3883 -11.7694 28.1327 39.8887 -10.8113 28.1654 42.1971 -20.2248 35.4359 39.505 -20.343 36.1963 37.7614 -19.3153 36.0035 40.2925 -19.3081 37.5844 39.9772 -18.9832 37.4049 40.9058 -19.571 38.1936 40.7255 -19.6464 39.2809 40.1341 -20.1519 35.7478 36.763 -21.0414 37.1423 37.1174 -18.5287 38.6974 41.5189 -19.8157 41.553 43.8909 -21.5022 41.0959 43.3265 -21.7013 41.7329 44.282 -21.6973 40.2046 42.0309 -23.0521 40.2728 43.2145 -20.3001 40.0064 40.8603 -18.6042 39.7848 40.9276 -21.8338 43.6811 45.464 -20.7809 44.249 44.1037 -21.2145 43.3884 46.6036 -22.3386 42.4708 45.4737 -20.7277 44.2539 42.8385 -19.618 45.1463 43.5856 -21.1867 41.0711 47.939 -21.975 40.2773 51.1063 -21.4406 41.3928 50.6185 -22.5865 42.1136 51.2261 -20.4896 41.1498 49.4095 -19.053 42.1899 49.1699 -23.5854 42.7312 50.9701 -16.7221 28.7299 39.2447 -15.9774 28.3836 38.1991 -16.2006 29.7289 37.8795 -15.6769 26.8549 38.3566 -17.2956 29.8841 36.8482 -14.671 26.4837 39.6209 -13.2352 27.3721 39.7477 -18.6628 29.6549 35.7784 -18.9429 30.6788 34.5099 -18.2088 29.9998 34.5201 -18.0432 30.9095 34.1395 -19.3068 31.8701 36.1112 -18.9226 31.4221 37.2038 -21.8615 30.3145 37.2721 -22.3555 31.3817 36.0974 -22.3954 34.1477 41.3944 -23.9696 33.4023 41.5233 -21.7058 33.256 40.689 -22.0783 33.0222 39.4856 -24.981
[...]
POINT_DATA 1686
FIELD FieldData 1
normals 3 1686 double
-0.418248 0.495765 -0.761108 0.822037 -0.334269 0.460999 -0.275269 -0.387971 -0.879605 0.849916 0.486513 0.202357 -0.950231 -0.261571 -0.169237 -0.214792 0.960277 -0.178137 -0.449393 0.892231 -0.0443892 -0.38013 -0.79379 0.474763 -0.0390561 -0.198343 -0.979354 -0.00504427 -0.902523 -0.430611 0.543062 0.744506 -0.388323 0.11734 -0.661043 -0.741117 -0.338792 -0.875641 0.344197 0.540176 -0.580821 -0.608981 0.550293 0.565725 -0.614112 0.189674 0.964459 0.183966 -0.438518 0.709796 -0.551264 0.495583 -0.149113 -0.855665 -0.838473 0.543701 0.0367808 -0.969545 0.143115 -0.198748 0.130404 0.62424 -0.770272 -0.120499 0.33181 0.935619 0.184818 -0.597217 -0.780496 0.735059 -0.676126 0.0504136 0.493854 0.678423 0.543922 -0.811264 -0.238873 0.533658 0.470897 -0.209147 0.857038 0.7908 -0.550636 0.267273 -0.294766 0.359175 0.885498 0.498319 0.360364 -0.788553 -0.696311 -0.684334 0.216421 -0.314277 -0.784204 -0.535027 0.518264 -0.343217 0.783329 0.294348 -0.820603 -0.489867 0.794393 0.263361 0.54734 0.0723999 -0.946601 0.314172 0.489091 -0.599934 -0.633143 0.615736 0.511859 0.599057 -0.198712 0.757501 0.621857 -0.562518 -0.129141 0.816637 0.501373 0.684956 -0.52864 0.674609 -0.116807 0.728875 -0.331406 0.921479 -0.202598 -0.582355 -0.479649 -0.656353 -0.684761 -0.450303 0.573 0.80221 0.584558 0.121453 -0.586275 0.606025 0.537601 -0.747402 -0.475035 -0.464469 -0.405033 -0.907695 0.109718 0.634808 -0.380082 -0.672723 0.876467 -0.211068 0.432731 -0.645577 0.0431402 0.762476 -0.152453 -0.758036 0.634145 -0.233015 0.972219 0.0222217 0.351345 -0.909535 -0.22204 -0.272287 -0.373518 -0.886761 0.529596 -0.0314254 0.847668 0.901502 0.089466 -0.423427 -0.305392 0.868585 -0.390251 0.722707 0.673225 0.156405 0.924487 0.362754 0.117186 0.827235 -0.456854 0.327058 0.781482 0.623848 -0.00992518 0.862952 -0.164866 -0.477633 -0.148417 -0.647194 -0.747738 -0.471448 0.874608 -0.113127 0.396384 0.158511 0.904298 0.550136 -0.637003 -0.539979 -0.326886 0.157522 0.931844 -0.446398 -0.830788 0.332445 0.0583827 0.151932 0.986665 -0.159777 -0.369085 -0.915559 -0.177225 0.619324 -0.764872 0.92409 0.343049 0.168448 -0.388731 -0.494607 0.777336 0.571452 -0.215609 0.791805 0.960183 0.278999 0.0144677 -0.17716 -0.816829 0.549003 -0.963875 -0.100043 -0.246853 0.868591 0.484646 0.103285 0.856834 0.450497 0.250777 -0.102582 -0.942596 -0.317788 -0.674399 -0.0814101 0.733865 -0.0783285 -0.996363 -0.0335576 -0.500392 0.865795 -0.00275292 -0.703355 -0.0494467 -0.709117 -0.0752124 0.461163 -0.884122 -0.456909 0.887724 -0.0563926 0.865461 -0.498345 0.0512887 -0.0680153 0.569837 0.818938 -0.398082 0.80261 -0.444239 -0.128395 -0.17219 -0.97666 -0.0565378 -0.90373 0.424353 0.531809 0.641301 -0.553093 -0.951571 -0.286577 -0.11129 -0.60733 -0.293911 -0.738083 -0.084183 -0.545211 -0.834061 -0.420027 -0.509632 0.750901 -0.201455 0.877748 0.434712 0.607205 0.553734 -0.569808 -0.445241 -0.861564 -0.243862 -0.204002 0.680833 0.703455 -0.97074 0.128414 0.202913 -0.776513 -0.399103 0.48759 -0.208959 -0.494117 -0.84391 -0.00977173 0.153315 0.988129 -0.563454 -0.602188 0.565588 0.255371 -0.719024 0.646367 -0.466079 -0.741272 -0.482997 -0.351595 0.737278 0.57689 -0.0148801 -0.878946 0.476689 -0.754286 0.591179 0.285587 0.102591 0.42656 0.898622 -0.266026 0.787964 -0.555286 -0.394343 0.901048 0.180573 -0.77703 0.421261 0.467721 0.44031 0.524338 -0.728832 -0.0994216 -0.643672 0.758816 0.534402 0.837466 -0.114302 -0.864214 0.391454 -0.316068 -0.778443 -0.421783 0.464892 -0.426813 -0.875628 -0.226067 -0.335587 -0.0045828 -0.941998 -0.285596 0.904227 -0.317503 0.968574 0.23836 0.0710496 -0.170499 0.977167 -0.126788 0.240198 0.809204 -0.536185 -0.415971 -0.493879 -0.763578 -0.90261 0.425596 0.0645271 0.603865 0.679166 -0.41723 -0.914579 -0.287334 -0.284579 -0.758772 -0.0355412 -0.650386 0.317185 -0.927065 0.199859 0.0245208 0.65411 -0.756002 -0.923003 -0.193795 -0.332429 -0.310905 -0.9352 0.169525 -0.710989 0.698649 -0.0798956 -0.677527 -0.334399 0.655083 0.21107 0.214964 -0.953541 0.283887 0.0359533 0.958183 -0.8897 0.404443 0.211803 -0.70559 -0.706519 0.0545295 0.555431 0.767607 0.319807 -0.981183 0.0565527 0.184612 -0.763775 -0.0474351 0.643737 -0.479043 -0.371831 -0.795148 0.317403 -0.654921 0.685809 0.847324 -0.388802 -0.361767 -0.494529 0.597796 -0.630937 0.803339 -0.583877 -0.11719 -0.404609 -0.620548 -0.671723 0.428354 0.736645 -0.523323 0.380245 -0.875212 -0.299027 -0.749268 0.530289 -0.396726 -0.90575 -0.365235 0.214988 0.501587 -0.865096 0.00438922 0.306848 -0.0684693 0.949292 -0.811277 -0.467798 0.350705 0.286513 0.893847 -0.344889 0.601942 -0.764945 0.229184 -0.929086 0.0246049 0.369045 0.941665 -0.325501 -0.0855399 -0.215687 0.572284 -0.791183 0.33836 -0.608018 -0.718211 -0.701285 0.495075 0.512933 0.846903 -0.0391253 0.530305 -0.477666 -0.00369408 -0.878534 0.046687 -0.591023 -0.805302 0.947926 -0.310754 0.0697714 -0.236474 -0.665654 0.707803 0.339454 -0.732892 0.58961 -0.499422 0.598278 0.626611 -0.743693 -0.335673 0.578139 0.594 0.650963 0.472664 -0.163714 -0.395437 0.903785 0.366494 0.890056 -0.271076 -0.243059 -0.925759 -0.289641 0.456558 -0.00913677 -0.889647 0.91413 -0.219335 0.340966 0.436694 0.223108 -0.871505 -0.25364 0.412303 0.875027 -0.373374 0.65753 -0.654405 -0.7637 -0.62891 -0.145723 -0.354063 0.191992 0.915303 0.600471 -0.475349 -0.643022 0.196676 0.980418 -0.00993986 -0.976714 0.188194 0.103021 0.729392 0.637024 0.249377 0.143622 -0.845522 -0.514261 -0.694873 -0.249217 0.674568 0.11465 0.625847 -0.771473 0.314464 -0.926256 -0.207756 -0.316272 -0.490689 -0.811909 0.739714 0.380857 0.554772 0.45921 -0.84899 -0.261423 0.799711 0.1175 0.588776 -0.241619 0.962278 -0.125068 -0.790989 0.203868 -0.576866 0.174412 -0.475019 -0.862518 0.767695 0.458364 0.447824 -0.891393 -0.405827 0.201801 0.105372 0.498729 -0.860329 0.0116627 -0.801485 -0.597901 -0.0124445 0.597498 0.801774 0.994907 0.100502 0.00775312 -0.059662 0.877324 -0.476175 0.534847 -0.342748 0.77231 0.365767 0.872207 0.324762 -0.961449 0.0241569 0.27392 0.974596 0.209512 -0.0791691 0.528751 -0.482422 -0.698349 0.848786 -0.133906 -0.5115 0.152961 -0.981492 0.115225 -0.0224232 -0.131239 -0.991097 0.412877 -0.503403 -0.759025 0.78017 0.258801 0.569524 0.435776 -0.754567 -0.49064 -0.157056 0.0660839 0.985376 0.822571 0.559081 0.103945 0.0364992 -0.85052 -0.524675 0.0466087 0.955078 0.292667 -0.841734 0.518712 0.149736 -0.949606 -0.0641292 -0.306815 -0.18223 0.0190352 0.983072 0.223736 -0.838695 0.496521 -0.581269 -0.448391 0.679023 0.120261 0.232232 0.965197 -0.357659 0.933653 -0.0192986 -0.454647 -0.812339 0.365241 -0.165284 0.754734 0.634868 0.578711 0.390134 0.716163 -0.953833 -0.255792 0.157394 -0.404537 0.854399 -0.326118 0.550426 0.0962504 -0.829317 0.844458 -0.109742 0.524258 -0.352139 -0.822832 0.446033 0.266077 0.336823 -0.903191 0.736977 0.505677 -0.448504 0.754959 -0.541202 0.37032 -0.67717 0.60663 0.416462 0.553375 -0.60374 -0.573824 -0.614559 0.667733 -0.420059 0.79646 -0.595283 0.106252 0.151291 -0.0656032 -0.98631 -0.702562 -0.651772 0.285658 0.934055 -0.340333 0.108231 0.137146 -0.372205 -0.917962 0.241823 -0.872927 0.423698 -0.273887 0.421881 -0.864293 0.585447 0.614139 0.529231 0.283791 -0.0745094 0.955987 -0.732927 -0.678927 0.0433083 -0.713134 0.25365 -0.65353 -0.908111 -0.175794 0.380041 -0.436366 -0.133747 -0.889773 0.96675 0.247233 0.0653467 0.263366 -0.112307 0.958136 -0.2775 -0.604895 0.746388 0.967218 0.213913 -0.136862 0.596067 0.20829 -0.775448 -0.0065916 -0.84569 0.533634 0.105013 -0.112307 -0.988109 -0.974004 -0.0807028 -0.211669 0.267184 -0.385577 0.883144 0.90025 -0.375927 0.21961 -0.0644295 -0.673144 -0.736699 -0.00389595 0.861065 0.50848 0.510459 0.137606 0.848821 0.594508 0.55204 0.584647 -0.968696 -0.0998589 0.227281 0.104739 -0.360664 0.926796 0.686938 0.725617 0.0399472 -0.049488 0.952095 -0.301772 -0.856725 0.000564312 0.515773 0.553919 -0.548672 0.626206 0.65906 0.445578 0.605888 0.532735 0.820831 -0.205985 0.500466 -0.746187 -0.43902 0.549876 -0.390423 0.738381 -0.86713 -0.383194 -0.318194 -0.210175 -0.781452 0.587503 0.899941 -0.347709 0.263069 0.800378 0.595527 -0.0688641 -0.147405 -0.00875717 0.989038 -0.669758 0.724354 0.163509 -0.853674 0.00154687 -0.520806 -0.761478 -0.172705 0.624759 -0.449514 -0.761239 -0.467389 -0.457429 -0.725278 -0.514519 0.526716 -0.776948 -0.34485 -0.800863 0.286795 0.525706 0.984146 -0.0516712 0.169669 -0.0248589 0.893271 0.44883 -0.809466 -0.575846 -0.114743 -0.855207 0.516899 0.0378966 -0.830348 -0.376372 -0.410933 -0.28317 -0.948553 0.141644 0.82378 -0.320462 -0.467643 0.671578 -0.740854 0.0108952 -0.019984 -0.352891 -0.935451 0.0877638 -0.956868 0.276948 0.0691086 -0.0907016 -0.993477 -0.989958 -0.140731 -0.0133326 0.485571 -0.804753 0.341457 -0.189782 0.12005 0.974459 0.803521 0.582354 0.123362 -0.260087 0.699064 -0.666081 -0.491934 -0.518113 -0.699685 0.343645 0.894362 -0.286399 0.357437 0.911048 0.205501 0.331836 -0.727862 0.600084 -0.464369 0.885288 0.0250361 -0.318648 0.282232 -0.90488 0.406528 -0.912748 -0.0403387 -0.487104 -0.741582 0.461287 0.62675 0.411886 -0.661464 -0.415967 0.207652 0.885354 -0.56888 -0.0309508 0.821838 0.670918 -0.451094 0.588544 0.454426 0.198805 0.868316 -0.665994 -0.559034 -0.493896 0.772353 -0.225006 -0.594006 0.321983 0.253528 0.912168 -0.148377 -0.520779 -0.840698 0.434633 -0.692019 -0.57637 -0.390276 -0.796893 0.461136 0.5195 -0.659428 0.543391 -0.668371 0.680275 -0.300841 -0.547867 -0.385834 0.742276 0.386918 -0.892114 0.233298 0.630127 0.718427 0.294623 -0.188553 0.263184 0.946141 0.658735 -0.326088 0.678037 0.768226 -0.288993 0.571237 -0.485443 0.0435917 0.873181 0.938103 0.125497 -0.322822 0.169876 0.41449 -0.894058 0.14409 0.98403 0.104513 -0.284656 0.00284835 0.958626 -0.80625 0.433415 -0.402632 -0.176356 0.982941 -0.0522097 -0.768939 -0.600743 -0.218727 -0.789958 0.228458 0.569011 -0.176098 -0.932308 0.315897 0.150077 -0.568556 0.808839 0.0228236 0.418345 0.908001 -0.785207 -0.182905 -0.591604 -0.127253 0.986901 0.099163 0.314434 -0.224743 0.922292 0.196207 0.53567 -0.821316 0.595031 0.792307 -0.134862 -0.587752 0.788683 -0.180352 -0.26292 0.609131 0.748219 0.324831 -0.179551 0.928572 0.249381 0.90779 0.337235 -0.00511561 -0.984173 -0.177135 -0.894553 0.410291 0.1773 0.717436 0.683401 -0.135088 0.997277 -0.0537236 0.0505139 -0.6892 -0.510797 -0.513896 -0.888295 0.126152 0.441608 0.494116 -0.380505 -0.781707 -0.860742 -0.312353 0.401943 0.903064 0.182291 -0.388902 0.792887 -0.403938 0.45625 -0.253803 -0.598474 0.759877 0.79917 -0.0306146 -0.600324 0.8731 0.305749 0.379755 -0.250981 -0.611819 -0.750124 -0.746056 0.0355265 -0.664935 0.363694 0.927884 0.0822101 0.723621 -0.374762 0.579591 0.389908 -0.905096 0.169623 0.924384 0.210451 -0.318158 -0.221577 0.931187 0.289474 0.0265316 -0.453466 -0.890878 -0.488875 0.272832 -0.828591 -0.777263 -0.313597 -0.545453 0.695203 0.500504 -0.515935 0.0495748 -0.846775 -0.529636 -0.173633 0.498502 -0.849322 0.250866 -0.681929 0.687051 -0.921426 -0.343325 -0.181942 0.7551 0.310695 0.577315 0.68062 0.577701 -0.450575 -0.445739 0.114126 -0.887858 0.165651 0.909781 -0.380602 0.899722 0.230783 -0.370458 0.73407 -0.678998 0.010144 0.825915 0.236049 0.512002 -0.441667 -0.684004 0.580575 -0.755095 0.546982 -0.361445 0.261101 0.520143 -0.81319 0.961094 -0.0310521 -0.27447 -0.613124 -0.776473 -0.145493 -0.271506 -0.860614 -0.430845 -0.100946 0.626775 -0.772634 -0.39864 -0.867065 0.298805 -0.984353 -0.17315 0.0326955 -0.783773 0.606825 -0.132147 -0.419015 -0.363151 -0.832195 -0.0339868 -0.848998 0.527302 -0.452416 -0.132821 0.881861 0.355697 -0.934005 0.0333804 0.641256 0.1024 -0.760464 0.0180721 -0.679217 -0.733715 -0.623184 -0.781618 0.0267475 -0.588301 0.808327 0.0225787 -0.680634 -0.383882 0.623996 0.0243383 0.969026 0.245757 0.544739 0.290072 0.78684 0.246291 -0.661148 0.708678 -0.298448 -0.95122 -0.078162 0.136595 -0.987855 -0.0740491 0.949994 0.308264 -0.0498503 0.963295 -0.235011 -0.12974 0.341944 0.938211 -0.0532341 0.349997 0.0948615 0.931935 0.598677 0.0254229 -0.800587 0.782929 -0.128767 0.608638 -0.114401 0.0934857 -0.989026 -0.355561 0.339392 0.870856 0.655876 0.738375 0.156938 -0.417078 -0.540099 0.730985 -0.888916 0.457907 -0.0122166 0.992696 -0.114418 -0.0382453 -0.0271043 0.507169 0.86142 0.198572 0.980038 0.00967816 -0.420978 -0.808963 -0.410311 0.225677 0.472871 -0.851741 -0.281839 -0.160608 0.945924 0.0183829 -0.136043 -0.990532 -0.895608 -0.263108 -0.358693 0.183126 0.236552 -0.954205 -0.376432 0.92384 -0.0694117 -0.201262 0.52092 0.829539 0.931997 -0.359523 -0.0460897 0.131308 -0.395858 0.908875 -0.11904 0.658358 -0.743232 -0.824781 -0.411763 -0.387541 0.951918 0.12508 -0.279656 -0.0465496 -0.0105026 0.998861 -0.224287 0.855286 0.467099 0.0690675 -0.17622 0.981925 0.0706945 -0.739324 0.669628 0.745202 0.020918 -0.66651 -0.129223 0.651271 -0.747762 -0.677924 -0.535124 -0.504045 0.908259 0.103942 0.405293 0.390374 -0.233006 -0.890683 -0.447435 -0.187539 0.874432 0.0768805 -0.0671346 0.994778 0.508228 -0.158471 -0.846517 0.313879 -0.941847 -0.120016 0.928362 0.203836 -0.310798 0.457176 0.638915 0.61869 0.838279 -0.183744 -0.513348 0.844777 0.481691 0.233079 0.00649776 0.665435 0.746427 0.770008 -0.524677 -0.363046 -0.965852 -0.255246 0.044501 0.0481781 -0.997811 0.0452896 0.0111731 0.242616 -0.970058 -0.928137 0.316826 -0.195404 -0.709164 -0.577481 -0.404477 0.215275 0.323349 0.921467 -0.0149442 -0.993709 0.110993 0.892268 0.451478 0.00498986 -0.363578 0.897112 -0.251001 0.89685 0.429546 0.105597 0.292691 -0.76115 -0.578777 0.711522 0.675834 -0.192317 0.755491 -0.121048 0.64388 0.813817 -0.0284094 0.580426 -0.386439 -0.866814 0.315118 -0.23997 -0.256965 -0.936153 -0.588923 0.480998 0.64947 0.320433 -0.32002 0.891577 0.409452 -0.648448 0.641766 -0.639464 0.741428 0.203397 0.443444 0.37715 0.81309 -0.42817 -0.615543 0.661648 -0.821528 0.321038 -0.471197 -0.675686 0.347307 0.650251 0.765939 0.327197 -0.553425 -0.814196 0.569434 0.113264 -0.640671 0.547561 -0.538254 0.76914 0.638898 -0.0152742 -0.837602 -0.212563 -0.50323 0.390064 0.596028 -0.701855 -0.0855721 0.849547 -0.520526 -0.209258 -0.755537 -0.620786 -0.489965 -0.346375 0.799974 -0.218361 -0.925822 -0.308501 0.376336 -0.34189 -0.861094 0.397315 -0.493484 0.773702 0.594697 0.583932 -0.552593 0.788268 0.237321 -0.567726 0.565913 0.692348 0.447658 0.794801 -0.598514 0.100363 -0.189313 0.0893692 -0.977841 -0.562053 -0.640906 -0.522815 0.97815 -0.207478 -0.0132347 -0.690141 0.273633 0.669948 -0.937707 0.183909 -0.29476 -0.247566 -0.0897246 -0.964708 -0.144121 -0.988192 -0.0520136 -0.697814 -0.614162 0.368591 0.597718 0.153441 0.786885 0.970536 -0.239392 0.0274212 -0.40079 0.180326 0.898248 0.0657625 0.318477 -0.945647 -0.0940085 0.951546 -0.292784 -0.339413 0.209792 -0.916944 -0.245405 -0.741756 -0.62416 -0.913879 -0.362147 0.183505 -0.973976 0.0205828 -0.225714 -0.997941 -0.0587142 -0.0258103 -0.100851 0.181589 -0.978189 -0.279451 -0.33848 0.89852 0.636387 -0.771357 0.00437498 0.248839 0.948389 -0.196562 0.992424 -0.122728 -0.00564959 -0.270854 0.850175 0.451486 -0.277979 0.705689 0.651714 0.912371 0.37743 0.158515 -0.966345 0.18835 -0.175218 -0.369665 -0.391185 0.842806 0.154734 0.550808 -0.820163 -0.831009 -0.321202 -0.454151 0.772018 0.465791 -0.432466 -0.97176 0.131487 0.195942 -0.915827 0.273183 -0.294334 -0.283205 0.409362 0.867305 0.428235 -0.655139 -0.62242 0.841827 -0.468786 0.267521 0.984948 -0.0522336 -0.16477 -0.0218877 -0.961925 -0.272434 0.0936036 -0.133956 -0.986557 0.253225 -0.0158817 -0.967277 0.0276218 0.0522306 0.998253 -0.978827 0.153655 0.13523 0.144554 0.802584 0.57876 0.202973 0.8515 -0.483476 0.905484 0.321691 0.276793 -0.539563 0.698483 0.470099 0.392298 -0.121518 -0.911776 -0.0145624 0.430168 -0.902631 -0.481573 0.529659 0.698247 -0.711133 0.620711 -0.330163 0.971011 0.215371 -0.103696 -0.199315 -0.749215 -0.631625 0.86408 -0.110055 -0.491176 0.781162 -0.430032 0.452614 -0.646195 0.656223 -0.389619 -0.205279 -0.942668 -0.263132 0.327821 -0.7025 0.631685 -0.0829179 -0.319976 0.94379 -0.0558002 -0.99842 -0.00668158 0.339559 -0.494618 0.800033 -0.965484 -0.260288 -0.00950481 0.698034 0.0805894 -0.711516 -0.159607 0.845293 0.509907 0.25246 -0.459768 -0.851397 0.130877 -0.919713 0.370133 -0.849301 0.244128 -0.46807 0.299924 0.84345 -0.445688 0.956917 0.279229 -0.0796276 -0.686737 -0.619331 -0.380555 -0.925339 -0.285563 -0.249402 0.00860439 -0.507193 -0.86179 -0.982385 -0.0548552 -0.178636 -0.93082 -0.343793 0.124021 -0.875119 -0.256996 0.410023 -0.440602 0.892112 -0.100027 0.493079 0.425283 -0.758952 0.604404 -0.262913 -0.752046 0.758461 -0.392435 0.520319 0.26435 -0.934391 -0.238815 -0.781454 -0.0662009 0.620441 -0.580647 0.808555 0.0953281 0.33684 -0.472514 0.814414 -0.200192 0.809301 0.552228 -0.976929 0.133076 -0.167032 0.972753 -0.107527 0.205399 -0.308861 0.189434 0.932051 -0.967087 0.240187 -0.0839867 -0.361726 0.121102 0.924386 0.400521 0.289982 0.869191 -0.46011 -0.879792 0.119434 0.675602 -0.693664 -0.249783 -0.267668 0.39135 0.880454 -0.529298 -0.796724 -0.291676 0.127083 -0.991439 -0.0299829 -0.566206 0.182184 -0.803878 0.982114 0.0927607 -0.16385 0.791861 -0.128599 0.597008 -0.122626 0.834808 0.53671 -0.316802 -0.809371 -0.494525 0.327903 -0.94235 -0.0667509 -0.240088 -0.498997 0.832682 0.529581 0.838996 -0.125022 -0.0999154 -0.553357 -0.82693 0.532166 0.436045 0.725716 -0.645818 0.751003 -0.137527 0.874366 0.461795 -0.149093 0.549694 -0.738821 0.389846 -0.899371 -0.365756 0.239489 -0.412303 0.761699 -0.499821 -0.389492 0.298999 0.871146 0.631703 0.762614 0.139184 0.715502 -0.622007 -0.318064 0.639327 0.160607 0.751975 -0.562313 -0.18947 -0.804925 0.364141 -0.762 0.535497 -0.186941 0.659944 0.727686 -0.824716 0.229741 0.51678 0.358524 0.611509 0.705349 0.112258 -0.534712 0.837544 -0.957375 -0.273888 0.091754 0.974909 -0.129115 0.181335 0.759213 -0.420155 0.497057 -0.198449 -0.832567 0.517156 -0.438183 0.703815 -0.559141 0.414681 -0.724613 0.550432 -0.869199 -0.423386 -0.255417 0.873703 0.451881 -0.180129 -0.610836 0.350006 0.710194 0.249828 -0.951021 0.182057 -0.0673841 0.106699 -0.992005 -0.678738 0.722451 -0.131829 0.401538 -0.524687 0.750647 -0.263694 0.822327 0.504226 0.376212 -0.55384 -0.742783 0.661312 -0.399385 0.634947 -0.817832 -0.463278 0.341357 0.545204 -0.629874 0.553183 0.683875 -0.527555 -0.503985 0.668425 0.685494 -0.288629 0.691412 -0.663214 0.286525 0.562149 0.46562 -0.68351 -0.894195 -0.331057 0.301357 -0.639909 0.59026 -0.492047 0.496018 -0.00497125 0.868298 0.178023 -0.864967 0.46919 -0.317995 -0.859996 -0.399108 -0.602585 -0.4501 -0.659015 0.116492 0.985725 -0.12156 -0.478183 0.166278 -0.862376 0.43427 -0.752563 0.495034 0.958423 -0.206643 0.196783 0.694129 -0.135338 -0.707014 -0.708317 0.635665 0.306949 0.411037 -0.0331111 0.911017 0.970342 -0.218673 0.103041 -0.386905 0.811075 -0.438704 -0.871527 -0.433712 0.228768 0.869657 0.311701 0.382804 -0.629825 0.115352 -0.768124 0.311092 -0.199359 -0.929235 0.317689 -0.519159 0.793441 -0.0214636 -0.505564 0.862522 -0.774077 -0.632385 0.0298903 0.532744 0.777381 0.334458 0.653661 0.550915 -0.518864 -0.0620578 0.475098 0.877742 -0.684241 0.692014 0.230069 0.182531 -0.908443 -0.376051 -0.694912 -0.0107097 -0.719015 -0.885796 -0.342632 -0.312999 0.371552 0.73117 0.572136 -0.872979 0.487578 -0.0132333 -0.744806 -0.0567574 0.664863 0.303997 0.509507 -0.804977 -0.683319 0.65885 -0.31463 -0.8265 -0.489759 0.27755 0.596012 0.632708 0.494419 0.832884 0.484881 0.266823 -0.571153 0.817876 -0.0697356 -0.115683 0.978681 0.169708 -0.612206 0.53886 -0.578648 0.333319 0.934331 0.126186 -0.60036 0.754773 0.264359 0.892998 0.0958278 -0.43974 -0.781774 -0.408328 -0.471273 -0.23683 0.696778 0.677062 0.484104 0.530895 0.695553 -0.507788 0.78336 -0.358468 -0.294633 -0.236098 -0.925986 -0.178663 -0.966719 -0.183121 0.0537639 0.75511 -0.65339 -0.671561 0.366045 -0.644218 -0.754292 -0.636058 0.162707 0.594029 0.165672 -0.787199 -0.839201 0.438496 0.321656 -0.364765 -0.221269 0.904426 0.474435 -0.659765 0.582771 0.659414 -0.461429 0.593512 0.157518 0.941702 0.297298 -0.761978 0.13