# vtk DataFile Version 4.0
Generated by libgran
ASCII
DATASET POLYDATA
POINTS 1686 FLOAT
-33.0424 1.54257 6.71898 -31.7875 0.699542 7.91706 -33.7603 1.66202 5.0896 -32.6149 2.52583 6.15879 -34.3294 -1.21377 8.12333 -34.2614 2.24238 4.04146 -31.6677 -0.318168 12.6406 -31.5769 -2.00563 13.1517 -32.1794 0.373845 11.627 -32.2423 -0.724264 10.2156 -31.6992 0.924539 10.2526 -31.0626 1.0149 9.11014 -31.2829 -3.59997 15.7102 -30.4208 -3.29251 14.7457 -30.4206 -2.1459 14.7466 -29.6996 -0.607317 14.3142 -29.0656 -0.351786 15.0441 -29.0272 0.216155 13.6394 -32.8712 -4.26518 13.709 -34.9127 -4.85729 15.1139 -33.8259 -4.35985 14.5313 -34.0498 -4.6694 16.238 -35.7069 -5.31358 14.1434 -33.4172 -5.01485 17.2121 -33.6667 -3.66735 17.7206 -33.9792 -3.23272 18.8016 -32.695 -3.19696 19.1164 -32.3952 -4.67851 21.8161 -33.4994 -3.79084 22.4334 -32.7074 -3.77561 20.7589 -32.2749 -5.9078 22.3084 -33.2585 -7.39773 22.0053 -33.2744 -3.76614 24.1019 -31.9176 -4.22107 19.4735 -32.6115 -8.07481 20.033 -33.3121 -9.29955 19.812 -31.3223 -8.38829 19.9452 -30.2161 -8.45471 19.9065 -29.8188 -7.16718 21.1149 -30.5862 -6.5426 22.5517 -29.544 -5.7184 21.1956 -32.5395 -10.3414 20.8581 -24.2719 -12.4955 23.4517 -25.1893 -12.0631 22.5918 -26.4554 -12.9956 22.5217 -23.8945 -11.6822 25.2286 -25.2816 -11.6587 25.6495 -27.8858 -13.9219 22.6441 -29.6908 -11.5805 19.9177 -28.657 -11.0611 19.1219 -29.216 -12.6918 20.4725 -30.737 -12.435 20.805 -28.4859 -13.6494 21.5456 -31.6186 -11.4118 21.5761 -27.6763 -12.3601 18.2347 -27.6031 -13.6552 17.1396 -26.733 -15.7898 17.9005 -26.3694 -15.6853 16.6256 -27.5743 -14.903 16.6574 -25.4709 -15.1401 18.8871 -24.5451 -15.2395 16.3007 -23.9189 -14.9234 19.3638 -23.8787 -15.9976 19.7215 -23.7486 -13.7337 12.527 -24.7643 -14.2135 12.2691 -25.0744 -12.6796 12.8807 -22.4874 -13.7416 12.9483 -22.3453 -14.5612 11.5163 -22.4076 -13.3985 14.7791 -23.1744 -14.0509 16.0583 -36.2418 15.7064 3.62085 -36.509 15.2029 1.72015 -36.4982 14.2158 1.56034 -35.2293 16.1883 4.75535 -34.6709 16.0269 5.68607 -33.7099 16.3031 5.67898 -34.0805 15.8027 6.4614 -39.6888 14.7402 1.18774 -40.4931 15.4675 0.419379 -38.65 16.0423 0.727693 -38.9904 14.3642 1.96665 -39.9685 12.9796 1.40924 -40.742 11.9556 1.83187 -41.4811 10.8746 2.54176 -45.7316 11.564 1.99844 -45.9535 10.649 1.2974 -46.3308 12.8919 1.12882 -45.0747 13.0819 3.12097 -42.4267 10.3771 2.47688 -41.5119 9.31281 1.68177 -41.8747 9.55098 0.428593 -41.6164 8.57945 -0.115365 -41.5072 7.84122 1.27971 -41.7695 11.0007 -0.563706 -43.239 10.066 -0.0909857 -41.8774 11.3548 -1.85075 -41.6526 6.39377 0.866367 -41.9516 6.42064 2.45885 -42.9688 7.80488 -6.37283 -42.1793 7.48904 -7.39507 -43.2211 6.06882 -7.05659 -43.5193 9.32236 -8.04057 -44.2945 8.77075 -8.52881 -44.4765 9.59481 -6.82859 -45.4858 8.40554 -9.14816 -45.2517 9.04319 -7.31682 -44.2191 4.60027 -6.72347 -44.0244 9.94851 -4.73523 -44.7683 9.9307 -5.85006 -44.0954 9.96001 -3.51017 -44.4373 9.8124 -2.44916 -45.187 9.51905 -1.66987 -44.3152 9.35425 -1.07839 -46.2176 10.8962 -1.90889 -44.5845 10.6763 0.0134055 -41.8802 3.97814 -9.2996 -40.6935 4.08836 -10.5259 -41.1903 2.91629 -9.02657 -42.1172 5.23428 -8.93338 -42.4585 6.46492 -9.3496 -44.0976 6.42962 -9.16633 -41.6935 1.39298 -8.48309 -45.22 6.00269 -9.62287 -44.1179 1.1361 -5.59999 -43.4454 2.28322 -5.85389 -44.5916 3.0165 -6.02989 -42.2504 3.3393 -6.33515 -25.5653 13.1172 19.583 -26.0558 14.0266 20.4199 -24.5679 14.3169 19.9024 -26.8991 12.2968 18.5695 -28.6801 12.6079 19.9533 -29.2264 10.153 18.1348 -29.5656 11.7495 17.2208 -29.8194 9.02608 17.9954 -29.1833 8.28391 18.4654 -28.8467 11.7299 16.5258 -31.4035 8.46978 18.3503 -30.5654 9.06011 16.7292 -31.7472 8.13019 19.9669 -26.6223 4.08115 13.1712 -26.4389 2.97124 13.0059 -26.953 5.24599 13.7206 -28.4912 4.53934 13.5801 -27.9033 2.21272 13.7095 -27.6278 1.89641 12.267 -28.3381 1.50779 15.0415 -27.2674 1.13889 11.1056 -26.9178 1.35207 10.1126 -29.5776 8.72112 15.6243 -30.7999 8.68324 15.1024 -28.3693 8.8943 14.9454 -30.8437 7.1995 14.114 -31.9724 8.60773 14.0532 -31.3737 5.96164 14.0208 -29.9709 5.46111 13.7832 -33.4976 6.71333 5.70704 -34.6294 6.3204 5.13042 -32.8875 7.53517 6.29947 -32.5711 5.8746 6.86786 -36.3576 5.88738 5.88495 -34.4507 4.19737 6.88726 -37.5059 6.49531 5.48908 -37.4149 6.46581 3.97731 -40.6677 5.41401 4.42097 -39.1217 4.8735 4.40361 -41.8545 5.90715 4.08404 -42.3224 5.31897 2.4078 -38.0436 6.17642 3.2015 -38.49 4.15871 5.62518 -32.5609 5.60025 11.8089 -31.9716 7.9532 10.9186 -33.1957 8.19948 12.1461 -33.3292 8.50006 13.2034 -34.0812 7.44819 13.6311 -32.365 10.0378 13.4124 -34.478 6.11824 14.2328 -34.8 3.43171 9.43894 -34.3226 3.22161 10.662 -33.9348 3.64545 7.66379 -33.6432 3.41274 11.8679 -25.8717 23.2714 28.466 -26.2576 21.9843 28.9764 -25.8555 22.8096 30.0369 -25.641 23.4515 27.1689 -26.0539 24.9069 27.7972 -26.8399 26.0719 27.8848 -23.0775 23.5533 28.3527 -22.73 23.7913 30.6599 -23.5753 24.3864 31.8445 -22.4663 23.5698 29.3756 -22.0325 23.2692 28.3986 -23.8566 25.3727 28.93 -23.5355 24.5216 33.0737 -25.598 27.4419 33.2831 -25.2674 28.4089 34.1367 -26.3053 29.251 33.4148 -25.924 26.7937 32.445 -24.9546 26.1185 32.164 -23.7103 28.9888 35.1865 -25.6653 25.2331 31.5027 -20.9715 25.9533 35.3632 -21.0574 24.6555 35.6399 -20.8835 27.0492 35.293 -19.9114 27.7586 36.1052 -20.9624 28.5274 35.6012 -18.3897 27.5287 36.9045 -18.5566 28.7381 36.4415 -21.9833 29.4242 35.3777 -20.0439 29.6101 35.0436 -27.8818 23.6396 33.2854 -28.4054 25.8677 33.6834 -30.4263 24.7203 35.7762 -30.2872 23.6059 34.9038 -29.8876 22.9687 33.1567 -26.5714 23.4219 33.1616 -31.5916 20.7088 31.233 -32.1938 21.5306 32.7046 -30.331 20.5194 30.8506 -29.469 20.2316 30.4333 -32.3138 22.555 33.9792 -33.1993 22.1134 33.8347 -34.9926 22.5578 33.6706 -35.7554 22.4664 32.3785 -35.3432 21.6093 31.896 -36.7811 23.8331 31.5975 -37.2462 23.6197 33.2409 -37.7247 24.3154 32.2526 -36.3923 21.6741 33.7273 -37.3017 24.6115 34.8376 -37.513 25.6426 32.9459 -41.2179 25.1216 36.2259 -40.6728 26.233 35.7403 -39.7123 25.4782 35.2428 -38.3164 25.4709 34.9422 -41.2003 25.4413 34.048 -37.2059 25.7027 34.5661 -35.3401 8.17418 23.1906 -35.2903 7.10798 23.9828 -36.7359 8.23471 24.0885 -34.0722 8.11887 22.1375 -35.2523 9.37056 22.3497 -32.7188 6.94926 21.6097 -31.7851 6.31996 20.6922 -32.3436 5.61066 19.989 -30.7162 5.94904 19.7792 -32.9128 4.59515 19.3465 -32.7661 4.06303 20.672 -28.8566 4.47268 18.9402 -28.5654 5.51977 18.6216 -40.1364 8.74397 23.4782 -40.5513 7.96019 24.4688 -42.0055 7.52916 23.8823 -40.4241 10.1672 23.8375 -41.7758 9.8508 23.3517 -38.6336 6.45007 21.4396 -38.7856 7.9847 22.2144 -37.9206 6.08282 22.2261 -37.2113 5.6873 22.8097 -35.6761 6.15505 21.8723 -36.233 5.05944 23.1674 -29.9062 15.7151 22.7278 -30.9749 15.7464 23.5184 -29.7165 15.4638 24.5996 -28.9037 15.2354 21.9504 -29.8767 14.9098 21.012 -31.9556 16.5201 23.823 -31.4508 17.529 25.1734 -30.3481 18.2299 26.6031 -33.2309 10.2171 20.6509 -32.1392 9.99614 21.3357 -31.6028 11.0866 20.4254 -34.2681 11.0484 20.6107 -35.0386 10.0666 21.4281 -30.3555 11.3064 21.0663 -30.2793 12.3029 21.0331 -29.2231 19.607 26.9734 -29.2529 18.0384 26.751 -29.976 19.7645 29.1703 -31.3923 19.7627 28.1127 -28.9509 16.5148 26.917 -28.2463 15.4026 27.7776 -31.1626 19.9771 25.7463 -32.1103 19.3785 26.8074 -31.0342 21.2979 25.8311 -32.5569 22.0204 25.4638 -34.1725 21.8504 25.5623 -34.1161 23.1203 23.806 -6.01373 25.2076 39.6784 -5.0328 25.1522 39.8647 -7.27417 24.7752 39.6712 -5.48518 24.4261 39.3468 -8.11015 25.9649 40.6251 -8.89249 24.4963 40.057 -8.9354 25.5902 40.2026 -8.96332 26.4861 40.6458 -4.79438 23.4244 39.6755 -3.67441 24.0436 39.0811 -4.41696 21.7339 39.843 -9.70806 23.5641 38.999 -5.85463 20.0631 41.1783 -5.84564 20.9246 39.9045 -6.77342 18.9774 41.4336 -7.29342 18.0388 41.757 -3.95524 21.1144 40.8387 -1.07259 25.3316 40.1732 -2.11912 25.4513 39.3617 -2.36177 24.2361 39.3339 0.0918653 26.7958 40.0199 -1.99759 27.0564 38.8895 -2.52641 22.9904 39.2386 -2.09244 28.8556 39.1024 0.704466 31.1218 39.5153 1.40083 29.9274 40.404 -2.04568 30.4783 38.653 2.44409 29.4116 39.7282 -2.98096 29.9643 39.9853 -21.1586 32.5322 42.4885 -19.9139 32.1161 42.275 -21.2925 32.7218 44.1749 -22.3946 31.9412 42.8106 -18.7137 31.2804 44.847 -19.1859 31.7763 46.3409 -18.0695 30.5212 43.4284 -15.6433 29.5194 41.7335 -16.4831 29.4266 42.7601 -14.6928 28.165 41.7267 -17.5443 29.3146 42.9064 -17.4418 28.2579 43.961 -16.5015 27.7442 43.4701 -13.5551 28.2285 42.5804 -14.3843 27.7817 43.2244 -17.3534 27.5622 45.3909 -11.5197 24.8309 43.6646 -12.7779 25.1679 43.9417 -11.3341 25.2357 42.7692 -10.5761 24.9519 43.3565 -13.1326 26.2058 44.9037 -13.579 25.234 45.7596 -13.7863 27.6223 44.5833 -10.5647 26.3393 42.3956 -15.353 27.4537 43.9412 -10.215 28.2061 40.1413 -9.60269 27.041 39.9051 -10.876 27.8818 41.5129 -11.0035 28.8698 41.5994 -11.7895 28.2533 40.0944 -10.8664 28.3099 42.4166 -20.2658 35.5496 39.502 -20.3649 36.2833 37.7458 -19.3694 36.1333 40.2926 -19.366 37.7109 39.9608 -19.0471 37.5424 40.8935 -19.6366 38.3268 40.7007 -19.712 39.4076 40.0975 -20.1587 35.821 36.7567 -21.0594 37.2161 37.0787 -18.602 38.8431 41.4962 -19.9212 41.7298 43.8236 -21.6007 41.2553 43.2527 -21.8108 41.9052 44.197 -21.7809 40.3448 41.9683 -23.1449 40.4215 43.1409 -20.3737 40.1381 40.8113 -18.6774 39.9239 40.893 -21.9712 43.8772 45.3387 -20.918 44.4313 43.9729 -21.354 43.6131 46.4864 -22.4625 42.6618 45.3692 -20.8584 44.4187 42.708 -19.7596 45.3304 43.448 -21.3077 41.3232 47.8676 -22.0991 40.5822 51.0476 -21.5747 41.6936 50.5396 -22.7306 42.4138 51.1287 -20.6169 41.4374 49.3387 -19.1903 42.4878 49.0842 -23.7357 43.0149 50.8583 -16.7296 28.8401 39.3659 -15.9719 28.4822 38.3337 -16.1943 29.8227 37.994 -15.673 26.9558 38.5149 -17.2777 29.9623 36.9483 -14.6875 26.6027 39.8004 -13.2545 27.4937 39.9398 -18.6327 29.7179 35.8665 -18.9012 30.7268 34.5836 -18.1658 30.0497 34.6093 -17.998 30.9555 34.2203 -19.2848 31.9341 36.1675 -18.9111 31.5005 37.2695 -21.849 30.3861 37.3237 -22.3323 31.4345 36.128 -22.4546 34.2787 41.382 -24.0264 33.5269 41.5031 -21.7516 33.3802 40.6991 -22.1072 33.1266 39.4945 -25.0309
[...]
POINT_DATA 1686
FIELD FieldData 1
normals 3 1686 double
-0.42753 0.501591 -0.75208 0.827349 -0.34144 0.445995 -0.29037 -0.382141 -0.877299 0.855088 0.481666 0.191892 -0.941537 -0.289951 -0.171568 -0.210724 0.962501 -0.170842 -0.457623 0.888473 -0.0345918 -0.366834 -0.798987 0.4765 -0.0540629 -0.196461 -0.97902 -0.0088859 -0.901648 -0.43238 0.534252 0.747154 -0.395393 0.102387 -0.656796 -0.747085 -0.326082 -0.880355 0.344451 0.536084 -0.572888 -0.620012 0.536226 0.573713 -0.619124 0.184775 0.964874 0.186753 -0.449281 0.709342 -0.543122 0.48762 -0.141401 -0.861529 -0.84146 0.53743 0.0557997 -0.973661 0.134662 -0.183987 0.113146 0.632103 -0.766579 -0.110802 0.322556 0.940043 0.179393 -0.590948 -0.78651 0.743373 -0.668006 0.0341316 0.493859 0.679493 0.542579 -0.806298 -0.244867 0.538445 0.477857 -0.20911 0.853186 0.80239 -0.533371 0.26774 -0.30185 0.354301 0.885075 0.490201 0.369533 -0.789397 -0.68209 -0.695914 0.224627 -0.301562 -0.794022 -0.527816 0.526862 -0.329598 0.783442 0.299602 -0.814991 -0.496012 0.791252 0.282171 0.542494 0.0906743 -0.942569 0.321468 0.497931 -0.595655 -0.630285 0.608256 0.529232 0.591556 -0.210934 0.758306 0.61683 -0.556516 -0.133727 0.820004 0.485693 0.690473 -0.53605 0.681917 -0.0993227 0.724655 -0.333451 0.91905 -0.210136 -0.583967 -0.486665 -0.649723 -0.682087 -0.445826 0.579651 0.801786 0.586815 0.11308 -0.585256 0.610258 0.53391 -0.748344 -0.480467 -0.45731 -0.403632 -0.906636 0.122848 0.630135 -0.387248 -0.67303 0.87839 -0.20466 0.431908 -0.64261 0.0521778 0.764415 -0.148265 -0.752934 0.641177 -0.238953 0.971008 0.00666507 0.350582 -0.911719 -0.214153 -0.277361 -0.383381 -0.880959 0.535271 -0.0222933 0.844386 0.898801 0.0822128 -0.430579 -0.306106 0.864457 -0.398766 0.726814 0.671945 0.142238 0.925556 0.363552 0.105714 0.825173 -0.455221 0.334459 0.78502 0.619036 -0.0232106 0.859712 -0.178241 -0.47867 -0.156019 -0.658034 -0.736647 -0.466139 0.875829 -0.125051 0.401444 0.170373 0.899898 0.543526 -0.64923 -0.532052 -0.321679 0.172665 0.930972 -0.4451 -0.825033 0.348147 0.0834731 0.142974 0.9862 -0.183701 -0.360473 -0.914501 -0.19445 0.626598 -0.754695 0.929023 0.339001 0.148303 -0.370646 -0.500447 0.782416 0.590421 -0.224221 0.775325 0.961066 0.276226 -0.00709276 -0.166024 -0.821486 0.545525 -0.970289 -0.0942527 -0.222837 0.872785 0.480563 0.0854767 0.86437 0.44542 0.233379 -0.11369 -0.939194 -0.324022 -0.659791 -0.0847799 0.746652 -0.0792799 -0.996174 -0.0367668 -0.500741 0.86552 0.0115638 -0.722623 -0.0494259 -0.689473 -0.0984535 0.462418 -0.881179 -0.458917 0.887442 -0.0429129 0.86635 -0.498646 0.0281098 -0.0483852 0.565651 0.823224 -0.411106 0.803824 -0.429952 -0.152887 -0.167706 -0.97391 -0.0436422 -0.905932 0.421168 0.516309 0.645903 -0.562347 -0.953179 -0.28882 -0.0896267 -0.624222 -0.291814 -0.724701 -0.101707 -0.541518 -0.834514 -0.400766 -0.514654 0.757969 -0.195242 0.874625 0.443748 0.594219 0.558793 -0.578494 -0.44758 -0.861432 -0.240015 -0.191605 0.67633 0.711242 -0.966807 0.124714 0.223003 -0.765594 -0.403881 0.500745 -0.224554 -0.489916 -0.842352 0.00961186 0.147734 0.98898 -0.550383 -0.607119 0.573137 0.270051 -0.721966 0.637054 -0.473778 -0.739772 -0.477779 -0.340981 0.733466 0.588013 -0.00091201 -0.881068 0.472989 -0.748843 0.587716 0.306306 0.123021 0.422913 0.897781 -0.28172 0.789462 -0.545329 -0.392372 0.899111 0.194018 -0.767218 0.41698 0.487344 0.41947 0.527192 -0.738995 -0.0773598 -0.64487 0.760367 0.530225 0.83916 -0.121129 -0.871589 0.39148 -0.295086 -0.767482 -0.426787 0.478356 -0.425795 -0.878442 -0.216885 -0.354918 -0.000141467 -0.934897 -0.295778 0.903745 -0.309451 0.968338 0.243383 0.0555529 -0.177873 0.976654 -0.120447 0.226638 0.812691 -0.536813 -0.420898 -0.506719 -0.752383 -0.911415 0.402726 0.0844619 0.5765 0.692958 -0.432963 -0.912921 -0.313694 -0.261095 -0.768218 -0.0606642 -0.637308 0.335804 -0.926074 0.172115 -0.00335011 0.67046 -0.741938 -0.928775 -0.20081 -0.311531 -0.292695 -0.942987 0.158445 -0.722194 0.690093 -0.0469873 -0.655313 -0.355488 0.666478 0.182771 0.234835 -0.954698 0.311641 0.0158919 0.950067 -0.888369 0.402755 0.220429 -0.7049 -0.707156 0.0551901 0.557679 0.762084 0.328971 -0.980497 0.0554314 0.188557 -0.759572 -0.0513622 0.648392 -0.484008 -0.367673 -0.794074 0.3248 -0.653566 0.683635 0.844437 -0.389853 -0.367344 -0.494914 0.603035 -0.625627 0.805091 -0.573818 -0.150206 -0.417286 -0.611702 -0.672081 0.403133 0.74699 -0.528668 0.373518 -0.872042 -0.316271 -0.755185 0.536187 -0.377093 -0.903558 -0.365818 0.223068 0.499237 -0.866344 -0.0145282 0.324875 -0.0701434 0.943152 -0.80698 -0.463073 0.366535 0.285232 0.891985 -0.350721 0.601575 -0.768588 0.217668 -0.921171 0.0300562 0.387996 0.938868 -0.328909 -0.101715 -0.227168 0.577876 -0.783871 0.318208 -0.607382 -0.727895 -0.688814 0.494294 0.530291 0.857184 -0.0462145 0.512932 -0.497924 -0.00116304 -0.86722 0.0299529 -0.587015 -0.809022 0.946882 -0.317993 0.0479129 -0.225456 -0.668581 0.708639 0.348404 -0.739446 0.57605 -0.488908 0.58957 0.642944 -0.735183 -0.343284 0.584518 0.601627 0.643856 0.472753 -0.150412 -0.408007 0.900503 0.362564 0.893862 -0.263738 -0.246362 -0.92195 -0.298855 0.442126 -0.00925971 -0.896905 0.919506 -0.219355 0.326177 0.423025 0.223009 -0.878247 -0.240159 0.41048 0.879676 -0.374286 0.654183 -0.657232 -0.760185 -0.632902 -0.146809 -0.358086 0.192461 0.913637 0.60492 -0.473989 -0.639848 0.192019 0.981323 -0.0116104 -0.97795 0.183757 0.0992319 0.725485 0.641098 0.250332 0.149411 -0.846032 -0.511769 -0.695927 -0.250969 0.67283 0.11427 0.624573 -0.772561 0.319596 -0.925224 -0.204497 -0.311154 -0.494104 -0.811816 0.735764 0.386261 0.556286 0.463895 -0.847443 -0.25815 0.794481 0.119526 0.59541 -0.243472 0.961627 -0.126468 -0.789915 0.199172 -0.579969 0.179484 -0.47595 -0.860963 0.762602 0.460382 0.454408 -0.890206 -0.409492 0.199626 0.110469 0.489511 -0.864971 0.0245849 -0.808284 -0.588279 -0.0224676 0.606442 0.79481 0.994539 0.102904 0.0173937 -0.0564301 0.871775 -0.486645 0.527189 -0.332797 0.781868 0.36029 0.876653 0.318858 -0.964417 0.0249911 0.263203 0.974932 0.210882 -0.0709657 0.533425 -0.481636 -0.695331 0.851054 -0.131057 -0.50846 0.157612 -0.980377 0.118404 -0.0185106 -0.134044 -0.990803 0.418033 -0.503226 -0.756315 0.776978 0.263938 0.571526 0.441591 -0.753594 -0.486922 -0.160573 0.068218 0.984664 0.818997 0.564198 0.104518 0.0429799 -0.851982 -0.521804 0.0405057 0.956199 0.289902 -0.845002 0.514598 0.145466 -0.948256 -0.0701999 -0.30965 -0.185497 0.0212067 0.982416 0.226617 -0.835889 0.499934 -0.581047 -0.449323 0.678596 0.115906 0.235963 0.964825 -0.362584 0.931656 -0.0234512 -0.45147 -0.813591 0.366396 -0.171364 0.755867 0.631902 0.574305 0.395522 0.716754 -0.952983 -0.260238 0.155237 -0.407945 0.851154 -0.33033 0.552564 0.0962973 -0.827888 0.843339 -0.103535 0.527313 -0.349264 -0.823136 0.44773 0.26718 0.33535 -0.903413 0.720162 0.526467 -0.451884 0.77001 -0.539729 0.340261 -0.675651 0.587002 0.446009 0.547774 -0.581774 -0.601235 -0.632317 0.669919 -0.389081 0.805646 -0.587832 0.0733992 0.127977 -0.0414742 -0.99091 -0.686449 -0.667826 0.287744 0.940958 -0.32944 0.0779001 0.11727 -0.34768 -0.930251 0.263986 -0.879808 0.395285 -0.299443 0.437818 -0.847732 0.590604 0.609269 0.52913 0.30729 -0.0935586 0.947006 -0.722272 -0.690229 0.0436748 -0.73185 0.259199 -0.630247 -0.896373 -0.197965 0.396643 -0.455373 -0.118409 -0.882391 0.964515 0.259458 0.0489118 0.287437 -0.131701 0.948702 -0.251443 -0.62671 0.737571 0.96066 0.231189 -0.153898 0.574538 0.236559 -0.783547 0.0177176 -0.859054 0.511578 0.0926186 -0.12234 -0.988157 -0.976058 -0.0910544 -0.197535 0.28229 -0.37359 0.883596 0.909888 -0.357349 0.210728 -0.0631549 -0.683004 -0.727679 -0.00471467 0.864802 0.502091 0.509561 0.144072 0.848287 0.593166 0.556868 0.581422 -0.961615 -0.12426 0.244655 0.130092 -0.34518 0.929477 0.666474 0.745282 0.0191736 -0.0755934 0.9556 -0.284807 -0.846014 -0.0261611 0.532518 0.580833 -0.525482 0.621693 0.657039 0.471059 0.58856 0.531763 0.820165 -0.211085 0.501942 -0.748454 -0.433441 0.549978 -0.384827 0.741237 -0.866279 -0.386618 -0.316365 -0.199882 -0.775099 0.59939 0.904477 -0.337138 0.261263 0.799539 0.596265 -0.0721559 -0.148236 -0.00239026 0.988949 -0.671156 0.724503 0.156987 -0.85152 -0.00203377 -0.524318 -0.764097 -0.167927 0.622861 -0.448147 -0.764473 -0.463406 -0.452384 -0.726047 -0.517885 0.528546 -0.781464 -0.331592 -0.808057 0.293694 0.510673 0.98093 -0.0554175 0.186293 -0.0279185 0.895974 0.443229 -0.810266 -0.572603 -0.124876 -0.853172 0.521219 0.020718 -0.825254 -0.374755 -0.422511 -0.29013 -0.94634 0.142352 0.829843 -0.327133 -0.452046 0.667549 -0.744142 0.0251228 -0.00530364 -0.359595 -0.933093 0.0725117 -0.956784 0.281614 0.0815021 -0.0953125 -0.992105 -0.991302 -0.128948 -0.0263059 0.471298 -0.809671 0.349729 -0.205825 0.124657 0.970617 0.806388 0.575914 0.134391 -0.240139 0.69558 -0.677128 -0.482796 -0.519636 -0.704902 0.358065 0.888257 -0.287731 0.361669 0.90951 0.20491 0.318154 -0.726082 0.609575 -0.456527 0.889673 0.00803819 -0.297637 0.277695 -0.913399 0.398728 -0.916735 -0.0247475 -0.503288 -0.73309 0.457472 0.64453 0.400964 -0.651006 -0.431986 0.219085 0.874865 -0.577825 -0.0225795 0.815848 0.666904 -0.438647 0.602352 0.443927 0.21222 0.87057 -0.658118 -0.568394 -0.49377 0.780879 -0.231931 -0.580031 0.308697 0.263892 0.91382 -0.136717 -0.527286 -0.838617 0.440682 -0.698623 -0.563671 -0.399193 -0.791422 0.462921 0.509734 -0.655826 0.556834 -0.661972 0.679366 -0.316631 -0.559518 -0.377303 0.737959 0.380867 -0.891012 0.247061 0.628048 0.719322 0.296871 -0.201176 0.272549 0.940875 0.647958 -0.318393 0.691937 0.758064 -0.283775 0.587206 -0.500135 0.0533021 0.864306 0.9436 0.121095 -0.308147 0.185536 0.404869 -0.895353 0.145402 0.984536 0.0977081 -0.300965 0.0127645 0.95355 -0.799136 0.431966 -0.418075 -0.174226 0.982523 -0.0655287 -0.767567 -0.600533 -0.224055 -0.798158 0.235558 0.554487 -0.185886 -0.929599 0.318265 0.137073 -0.559911 0.817135 0.00966222 0.428158 0.903652 -0.776423 -0.188395 -0.601394 -0.127411 0.988069 0.0865175 0.303454 -0.209418 0.929548 0.204321 0.52437 -0.826613 0.592914 0.793186 -0.138954 -0.589492 0.784433 -0.192778 -0.270591 0.615892 0.739904 0.3189 -0.16854 0.932683 0.243468 0.912245 0.329444 0.00194141 -0.986713 -0.162463 -0.898758 0.408392 0.15953 0.715737 0.684766 -0.137171 0.997111 -0.0475863 0.059203 -0.682358 -0.522042 -0.511722 -0.892454 0.127858 0.43264 0.502134 -0.388471 -0.772627 -0.861866 -0.311811 0.399951 0.905101 0.181761 -0.38439 0.791171 -0.396017 0.466068 -0.250668 -0.586778 0.769972 0.802496 -0.0327128 -0.59576 0.867884 0.322627 0.377742 -0.240697 -0.628681 -0.739476 -0.74285 0.0201194 -0.669155 0.355882 0.931841 0.070862 0.725274 -0.356033 0.589252 0.398926 -0.897297 0.188986 0.923271 0.214032 -0.318999 -0.232612 0.934313 0.270096 0.0345064 -0.470221 -0.881874 -0.488621 0.251508 -0.83546 -0.772489 -0.333271 -0.540547 0.700092 0.495444 -0.514204 0.0576447 -0.853418 -0.51803 -0.164772 0.487092 -0.857666 0.241225 -0.672956 0.699243 -0.918635 -0.347498 -0.18803 0.744325 0.319876 0.586225 0.688582 0.571158 -0.446803 -0.436327 0.103099 -0.893862 0.16776 0.90583 -0.38901 0.903178 0.228704 -0.36327 0.735417 -0.677126 0.0257405 0.819646 0.244761 0.517951 -0.445859 -0.678331 0.584018 -0.752489 0.539068 -0.378373 0.269177 0.509291 -0.817414 0.964733 -0.0303107 -0.261481 -0.607058 -0.782153 -0.140415 -0.261708 -0.86828 -0.421425 -0.0938779 0.614697 -0.783157 -0.397429 -0.864473 0.307792 -0.983651 -0.178483 0.0239519 -0.784899 0.600853 -0.151356 -0.406366 -0.377587 -0.832042 -0.0367695 -0.84122 0.539442 -0.463237 -0.121955 0.877803 0.359731 -0.931609 0.0519427 0.650622 0.094291 -0.753526 0.0309181 -0.689957 -0.72319 -0.619704 -0.784249 0.0303347 -0.584065 0.81131 0.0253885 -0.672024 -0.375334 0.638364 0.0308046 0.969183 0.24441 0.565016 0.282929 0.775053 0.252889 -0.664397 0.703295 -0.312127 -0.947326 -0.0717583 0.128519 -0.98673 -0.0992291 0.951365 0.303094 -0.0551306 0.965745 -0.246593 -0.080794 0.358191 0.933647 -0.00149137 0.29554 0.0585132 0.953537 0.647083 0.0478504 -0.760916 0.74197 -0.1678 0.649095 -0.0526496 0.127052 -0.990498 -0.402892 0.317115 0.858555 0.655914 0.719566 0.228039 -0.411355 -0.546914 0.729158 -0.89261 0.450751 -0.0084425 0.994041 -0.102382 -0.0374151 -0.0258195 0.51029 0.859614 0.190782 0.981621 0.0046693 -0.410816 -0.814429 -0.409801 0.216601 0.471332 -0.854944 -0.274675 -0.159163 0.948272 0.0133279 -0.139753 -0.990097 -0.895682 -0.271973 -0.351829 0.175082 0.233975 -0.956348 -0.385158 0.920268 -0.0689871 -0.2003 0.521064 0.829682 0.934723 -0.351787 -0.05038 0.141436 -0.391468 0.909257 -0.128011 0.658617 -0.74151 -0.827544 -0.413525 -0.379696 0.948795 0.127661 -0.288946 -0.0366544 -0.0113686 0.999263 -0.219353 0.85495 0.470047 0.0791995 -0.176783 0.981058 0.0788084 -0.741343 0.666483 0.740689 0.0270562 -0.671303 -0.145941 0.65826 -0.738509 -0.691892 -0.528752 -0.491637 0.918408 0.097838 0.383347 0.3673 -0.226129 -0.902195 -0.425995 -0.194096 0.88366 0.10079 -0.0711223 0.992362 0.506121 -0.155826 -0.848269 0.309204 -0.942593 -0.126136 0.924246 0.210685 -0.318403 0.457326 0.642677 0.61467 0.836006 -0.178376 -0.518918 0.842301 0.489753 0.225102 0.00629493 0.668128 0.744019 0.771787 -0.519343 -0.366917 -0.963481 -0.262555 0.0526167 0.056167 -0.997357 0.0460808 0.000989118 0.243371 -0.969933 -0.932147 0.309952 -0.187168 -0.711691 -0.57894 -0.397901 0.21348 0.325829 0.921011 -0.00693102 -0.993703 0.111836 0.897205 0.435958 0.0704568 -0.339794 0.915888 -0.213752 0.895286 0.411106 0.171626 0.314903 -0.746521 -0.586125 0.730747 0.670692 -0.127205 0.724649 -0.170959 0.667576 0.775904 -0.061339 0.627862 -0.415722 -0.872075 0.258187 -0.18464 -0.219108 -0.958071 -0.620797 0.468916 0.628275 0.260016 -0.354837 0.898044 0.359448 -0.676223 0.643055 -0.641512 0.742911 0.191166 0.397166 0.341022 0.852035 -0.476082 -0.632364 0.611115 -0.786666 0.350066 -0.508537 -0.710091 0.3335 0.620119 0.802794 0.334567 -0.493545 -0.812264 0.577325 0.0832014 -0.598823 0.576353 -0.556083 0.77741 0.626622 0.0545757 -0.808033 -0.181269 -0.560558 0.441627 0.612276 -0.655808 -0.0420056 0.868755 -0.493458 -0.186965 -0.731535 -0.655668 -0.54019 -0.36192 0.759742 -0.21672 -0.911658 -0.349159 0.417664 -0.322393 -0.849482 0.344504 -0.524914 0.77832 0.634384 0.589266 -0.500323 0.82253 0.239693 -0.515744 0.551282 0.667229 0.500894 0.77862 -0.615425 0.122486 -0.127908 0.133452 -0.982767 -0.543458 -0.613717 -0.572717 0.974105 -0.223919 0.0312842 -0.72547 0.25772 0.63818 -0.915054 0.212755 -0.342655 -0.189583 -0.0449658 -0.980834 -0.157093 -0.983486 -0.0898772 -0.726208 -0.612055 0.313067 0.557182 0.120695 0.821572 0.963747 -0.256976 0.0717952 -0.445296 0.161849 0.880634 0.120944 0.342498 -0.931701 -0.0678262 0.959989 -0.271698 -0.286311 0.237931 -0.928124 -0.218485 -0.722059 -0.656426 -0.928032 -0.351178 0.124219 -0.959836 0.038136 -0.277959 -0.995926 -0.0401396 -0.0807481 -0.0450676 0.211558 -0.976326 -0.332893 -0.359274 0.87184 0.622853 -0.782189 0.0153447 0.274156 0.949176 -0.154607 0.989183 -0.139705 0.0447268 -0.281751 0.841706 0.460594 -0.293086 0.701945 0.649133 0.907296 0.382396 0.174893 -0.964408 0.183099 -0.190766 -0.380057 -0.39606 0.835879 0.164821 0.549773 -0.818892 -0.822172 -0.326376 -0.466382 0.776405 0.468576 -0.421465 -0.975102 0.126299 0.182274 -0.932145 0.21627 -0.290401 -0.281925 0.455053 0.844656 0.443867 -0.673878 -0.590653 0.866707 -0.414337 0.277748 0.983353 -0.0232105 -0.180216 0.00374254 -0.974709 -0.223447 0.0867999 -0.180928 -0.979659 0.237536 -0.0537864 -0.969889 0.0131707 0.0510498 0.998609 -0.981436 0.148395 0.121502 0.132231 0.80254 0.581759 0.205264 0.852881 -0.480064 0.899828 0.326103 0.28977 -0.549748 0.694966 0.463464 0.405566 -0.118182 -0.906394 -0.00430991 0.431328 -0.902185 -0.494036 0.526137 0.692176 -0.702894 0.624805 -0.339938 0.971199 0.220656 -0.0899098 -0.191447 -0.74403 -0.640131 0.872051 -0.11051 -0.476776 0.771293 -0.436517 0.463207 -0.637233 0.661334 -0.39569 -0.20126 -0.939518 -0.277129 0.313776 -0.709614 0.630867 -0.100757 -0.326007 0.939983 -0.0569735 -0.998213 -0.0180415 0.322517 -0.503281 0.80168 -0.965582 -0.258162 -0.0316772 0.712416 0.0864503 -0.696412 -0.16829 0.840333 0.515286 0.268737 -0.451472 -0.850854 0.121159 -0.923864 0.363037 -0.838993 0.251158 -0.482711 0.311126 0.846952 -0.431129 0.958992 0.27771 -0.0566715 -0.680206 -0.613746 -0.400794 -0.92071 -0.281094 -0.270702 0.0247979 -0.498009 -0.866817 -0.978746 -0.0510422 -0.198621 -0.93385 -0.342926 0.101616 -0.883426 -0.260336 0.389595 -0.437215 0.893993 -0.0980802 0.5086 0.433408 -0.743965 0.618744 -0.255012 -0.743051 0.747455 -0.399885 0.530475 0.268284 -0.932615 -0.241355 -0.794467 -0.0705944 0.60319 -0.580742 0.808948 0.0913377 0.318588 -0.481561 0.816456 -0.211768 0.800211 0.561085 -0.965776 0.154316 -0.20848 0.960239 -0.12967 0.247239 -0.351568 0.172661 0.920102 -0.958236 0.257033 -0.125366 -0.404968 0.105352 0.908241 0.363852 0.259258 0.894649 -0.481586 -0.873751 0.06807 0.675769 -0.699196 -0.233371 -0.30818 0.370863 0.876063 -0.524487 -0.779843 -0.3417 0.112289 -0.992509 -0.0481305 -0.521659 0.213893 -0.825906 0.991173 0.0784515 -0.106868 0.755149 -0.159909 0.635751 -0.135287 0.823912 0.550334 -0.305201 -0.790169 -0.531493 0.314532 -0.946259 -0.0752571 -0.294618 -0.516855 0.803779 0.55192 0.830522 -0.0749523 -0.0773139 -0.545351 -0.834635 0.499316 0.404514 0.766193 -0.62399 0.76696 -0.149695 0.889216 0.449011 -0.0876525 0.51445 -0.760246 0.396695 -0.917082 -0.354166 0.183103 -0.371934 0.78263 -0.499155 -0.430516 0.282072 0.857374 0.635816 0.747095 0.193872 0.720954 -0.625184 -0.298949 0.601871 0.127792 0.788302 -0.522684 -0.156484 -0.838042 0.323499 -0.783253 0.530907 -0.214172 0.641636 0.736501 -0.846885 0.227531 0.480641 0.330815 0.583831 0.74142 0.05807 -0.564727 0.823232 -0.96526 -0.259469 0.0307937 0.961441 -0.152807 0.228649 0.725016 -0.444654 0.525961 -0.240036 -0.844063 0.47952 -0.395301 0.727961 -0.560187 0.377379 -0.747398 0.546791 -0.859852 -0.403301 -0.313053 0.887028 0.445706 -0.120532 -0.643344 0.334261 0.688751 0.229209 -0.95968 0.162718 -0.0157998 0.140634 -0.989936 -0.6625 0.735883 -0.139893 0.384677 -0.529092 0.756363 -0.257126 0.827298 0.499463 0.379675 -0.558831 -0.737262 0.648097 -0.406424 0.644042 -0.82763 -0.453479 0.330735 0.530365 -0.63539 0.561242 0.684551 -0.536004 -0.494055 0.6804 0.676903 -0.280816 0.679832 -0.670677 0.296683 0.576656 0.458241 -0.676375 -0.901928 -0.320414 0.289588 -0.626373 0.596904 -0.50136 0.484425 -0.010519 0.87477 0.161625 -0.866846 0.471651 -0.3228 -0.856327 -0.403118 -0.598718 -0.444031 -0.666613 0.129457 0.984189 -0.120882 -0.464215 0.170767 -0.869105 0.418697 -0.756925 0.501755 0.953178 -0.217387 0.210223 0.70231 -0.14375 -0.697206 -0.706329 0.642664 0.296786 0.398258 -0.0366967 0.916539 0.966291 -0.229628 0.116416 -0.367515 0.817211 -0.443958 -0.881553 -0.420162 0.215242 0.86851 0.29792 0.396148 -0.616666 0.126693 -0.776963 0.321118 -0.202947 -0.925038 0.299465 -0.524116 0.79726 0.00129491 -0.512943 0.858421 -0.758096 -0.651265 0.0338134 0.51618 0.788202 0.335105 0.633354 0.571876 -0.521363 -0.0644925 0.466195 0.882328 -0.69815 0.673417 0.243097 0.200198 -0.900925 -0.38504 -0.702161 -0.0219989 -0.711678 -0.880748 -0.361444 -0.306009 0.360537 0.737241 0.571392 -0.885337 0.464929 0.00440844 -0.735566 -0.077572 0.672997 0.2825 0.520282 -0.805915 -0.704572 0.640045 -0.306464 -0.811009 -0.516589 0.274589 0.594112 0.638373 0.489398 0.836381 0.47125 0.279983 -0.556783 0.827006 -0.0778018 -0.102622 0.980265 0.168966 -0.594282 0.549129 -0.587611 0.34681 0.928575 0.132181 -0.591974 0.764435 0.255356 0.900002 0.0821635 -0.428073 -0.782454 -0.393663 -0.482489 -0.233882 0.696958 0.6779 0.486806 0.529818 0.694488 -0.507345 0.784361 -0.356901 -0.291794 -0.232739 -0.927733 -0.154997 -0.96967 -0.18899 0.027386 0.761227 -0.647907 -0.688526 0.353056 -0.63347 -0.735151 -0.657239 0.166101 0.580313 0.188348 -0.792314 -0.846305 0.413207 0.336198 -0.347293 -0.239039 0.906779 0.499011 -0.652246 0.570582 0.677248 -0.449416 0.582547 0.136929 0.94293 0.303535 -0.772011 0.122536 -0.623686 0.680553 