# vtk DataFile Version 4.0
Generated by libgran
ASCII
DATASET POLYDATA
POINTS 1686 FLOAT
-32.9651 1.52517 6.72148 -31.7262 0.699351 7.94788 -33.6557 1.62867 5.07927 -32.5333 2.50662 6.16135 -34.2942 -1.15633 8.12484 -34.1448 2.1981 4.01951 -31.7115 -0.291007 12.6712 -31.6461 -1.97661 13.1922 -32.1961 0.402549 11.6454 -32.2368 -0.699677 10.2364 -31.6888 0.947397 10.2784 -31.0248 1.02937 9.151 -31.4136 -3.55703 15.7651 -30.5317 -3.26444 14.814 -30.5197 -2.11792 14.8079 -29.7762 -0.58925 14.3783 -29.1497 -0.3348 15.1151 -29.0879 0.224431 13.7077 -32.9699 -4.22139 13.743 -35.0438 -4.77804 15.1163 -33.9414 -4.29958 14.5472 -34.1975 -4.58943 16.2528 -35.8265 -5.23161 14.1353 -33.5862 -4.93362 17.2409 -33.8263 -3.57802 17.7321 -34.1448 -3.13817 18.8092 -32.863 -3.10913 19.1341 -32.6031 -4.5907 21.835 -33.6862 -3.67825 22.4538 -32.8927 -3.678 20.7799 -32.5122 -5.82679 22.3166 -33.5262 -7.29217 21.9943 -33.4632 -3.66449 24.1227 -32.0992 -4.13954 19.5025 -32.8849 -7.96373 20.0182 -33.6096 -9.1715 19.7822 -31.6021 -8.30328 19.9328 -30.4975 -8.39421 19.8997 -30.0783 -7.12834 21.1235 -30.8392 -6.50071 22.5625 -29.772 -5.68686 21.2197 -32.8663 -10.2386 20.8241 -24.6299 -12.4431 23.4143 -25.5431 -11.9995 22.5557 -26.8104 -12.9291 22.4698 -24.2585 -11.6507 25.202 -25.6472 -11.6298 25.6174 -28.2428 -13.8543 22.5758 -30.031 -11.4777 19.8719 -28.9903 -10.9484 19.0918 -29.56 -12.5979 20.4119 -31.0823 -12.3444 20.7413 -28.8369 -13.5692 21.4773 -31.9606 -11.3307 21.5285 -28.0031 -12.2361 18.1953 -27.923 -13.5167 17.0838 -27.0553 -15.6603 17.8212 -26.6821 -15.5364 16.5508 -27.8892 -14.7576 16.5845 -25.8045 -15.0203 18.8283 -24.8558 -15.0832 16.2477 -24.2549 -14.8044 19.3129 -24.2083 -15.8862 19.6462 -24.0368 -13.5176 12.5107 -25.0474 -14.0003 12.2384 -25.3726 -12.4805 12.8768 -22.7778 -13.5238 12.9384 -22.622 -14.3153 11.4922 -22.7102 -13.2123 14.7754 -23.4848 -13.889 16.0371 -36.1307 15.6508 3.48577 -36.341 15.1274 1.5833 -36.3221 14.1389 1.43379 -35.1531 16.1479 4.64413 -34.6213 15.9979 5.59216 -33.6614 16.2778 5.61004 -34.0527 15.7837 6.38642 -39.502 14.6452 0.963963 -40.2862 15.3602 0.164073 -38.4557 15.9471 0.520816 -38.8251 14.2804 1.76684 -39.781 12.8858 1.19624 -40.5579 11.8613 1.61109 -41.3123 10.7834 2.30957 -45.5444 11.4718 1.64032 -45.7438 10.5568 0.932674 -46.1164 12.7988 0.751162 -44.9212 12.9911 2.7801 -42.2556 10.285 2.22117 -41.3186 9.21684 1.45777 -41.6432 9.4491 0.19308 -41.3713 8.47406 -0.337757 -41.3055 7.74311 1.06386 -41.5051 10.8924 -0.80449 -42.9905 9.96509 -0.368221 -41.5753 11.2391 -2.09616 -41.4455 6.29408 0.654209 -41.7868 6.33041 2.238 -42.5641 7.66902 -6.63196 -41.7521 7.34417 -7.63352 -42.8061 5.92935 -7.31029 -43.071 9.1775 -8.3217 -43.8362 8.62495 -8.82454 -44.0556 9.46015 -7.13419 -45.0137 8.25914 -9.46937 -44.8207 8.9076 -7.63703 -43.8162 4.46607 -6.99111 -43.6517 9.82571 -5.03306 -44.3692 9.80296 -6.16487 -43.7522 9.84465 -3.81016 -44.1227 9.70355 -2.75792 -44.895 9.41627 -1.99864 -44.0407 9.25173 -1.38208 -45.9139 10.7956 -2.27301 -44.3365 10.5798 -0.304624 -41.4158 3.8214 -9.50438 -40.1934 3.92393 -10.6958 -40.74 2.75604 -9.21059 -41.6596 5.08038 -9.15268 -41.9877 6.30909 -9.58498 -43.6309 6.27918 -9.44205 -41.2697 1.23712 -8.68017 -44.7433 5.85283 -9.92281 -43.7588 1.00556 -5.85344 -43.0743 2.14764 -6.09816 -44.2123 2.88714 -6.29954 -41.8635 3.19424 -6.56006 -25.6884 13.0705 19.6243 -26.1749 13.9923 20.4498 -24.6662 14.2409 19.9725 -27.0179 12.2921 18.5727 -28.8235 12.6496 19.9021 -29.3803 10.2151 18.1053 -29.6658 11.7946 17.1444 -29.9882 9.0954 17.9728 -29.38 8.35374 18.479 -28.9281 11.7465 16.4709 -31.5912 8.57135 18.29 -30.6949 9.11566 16.684 -31.9918 8.27639 19.9022 -26.666 4.08187 13.2394 -26.4822 2.97054 13.0844 -27.001 5.25544 13.7672 -28.5376 4.54471 13.6301 -27.9537 2.21836 13.7801 -27.6659 1.89226 12.3422 -28.4039 1.51713 15.1089 -27.2954 1.13056 11.1867 -26.9404 1.33873 10.1946 -29.6761 8.74361 15.6185 -30.8817 8.70655 15.0588 -28.4409 8.89467 14.9844 -30.9028 7.20872 14.0912 -32.0311 8.61461 13.9857 -31.4284 5.96824 14.0083 -30.0205 5.46741 13.8039 -33.4305 6.6919 5.68874 -34.546 6.29102 5.08632 -32.8406 7.51789 6.29569 -32.5238 5.85922 6.86938 -36.2878 5.84408 5.80008 -34.3902 4.17212 6.84936 -37.4324 6.43881 5.37437 -37.3046 6.40388 3.86538 -40.5572 5.33382 4.23746 -39.0088 4.80038 4.25988 -41.735 5.82504 3.86781 -42.1605 5.22991 2.18272 -37.9108 6.1059 3.07507 -38.4017 4.09631 5.50003 -32.5805 5.57196 11.7826 -31.9733 7.90678 10.8621 -33.2193 8.17401 12.0629 -33.3717 8.4926 13.1123 -34.1315 7.44817 13.5444 -32.4099 10.0331 13.3118 -34.5412 6.12919 14.1613 -34.7829 3.41353 9.39701 -34.3277 3.205 10.6288 -33.8863 3.62528 7.63728 -33.6695 3.40011 11.8457 -25.9838 23.2362 28.4339 -26.3746 21.9496 28.9419 -25.9635 22.7694 30.0032 -25.7577 23.4193 27.1364 -26.16 24.8748 27.771 -26.9391 26.0439 27.8657 -23.1887 23.5033 28.3095 -22.8301 23.7321 30.616 -23.6672 24.328 31.806 -22.5731 23.5132 29.3299 -22.145 23.2133 28.35 -23.9553 25.3251 28.8958 -23.6212 24.4586 33.0354 -25.6675 27.3908 33.262 -25.3252 28.357 34.1119 -26.3674 29.2023 33.4 -26.0004 26.7465 32.4236 -25.0356 26.0672 32.1366 -23.7558 28.932 35.1459 -25.7537 25.1872 31.4759 -21.0279 25.8932 35.244 -21.1228 24.5926 35.5043 -20.9342 26.9894 35.1872 -19.9499 27.6857 35.9959 -21.0051 28.4637 35.5154 -18.4187 27.4416 36.7725 -18.5882 28.6573 36.3274 -22.0263 29.3659 35.3167 -20.0909 29.5511 34.9601 -27.9717 23.6006 33.2628 -28.4812 25.83 33.67 -30.4996 24.6877 35.7677 -30.3707 23.5756 34.8907 -29.9824 22.9422 33.1396 -26.663 23.3761 33.1326 -31.7088 20.7019 31.2129 -32.2995 21.5214 32.6905 -30.451 20.5054 30.8252 -29.5925 20.2134 30.4035 -32.4078 22.5411 33.9699 -33.2967 22.1057 33.8272 -35.0878 22.5623 33.6722 -35.8563 22.4814 32.3828 -35.4516 21.6239 31.8949 -36.8765 23.858 31.612 -37.3363 23.6403 33.2564 -37.8144 24.3434 32.2732 -36.4928 21.6871 33.7307 -37.379 24.6253 34.8577 -37.5915 25.6661 32.9715 -41.2862 25.1533 36.264 -40.7363 26.2635 35.7814 -39.7825 25.5051 35.2765 -38.3878 25.4906 34.9702 -41.2754 25.483 34.0876 -37.2774 25.7171 34.5906 -35.6647 8.45615 23.0214 -35.6533 7.41051 23.8419 -37.0821 8.56276 23.8803 -34.3703 8.35254 22.0046 -35.5351 9.62773 22.1514 -33.0221 7.14883 21.5447 -32.0724 6.48389 20.6697 -32.6224 5.7666 19.9679 -30.9843 6.07408 19.7969 -33.187 4.74251 19.3351 -33.0895 4.24432 20.6783 -29.1245 4.55034 19.0467 -28.8093 5.58524 18.7116 -40.4551 9.11332 23.1631 -40.911 8.36285 24.1616 -42.3557 7.94118 23.5458 -40.7275 10.5501 23.4776 -42.0707 10.244 22.9625 -38.9375 6.74175 21.227 -39.0837 8.29851 21.9576 -38.2529 6.38317 22.0423 -37.5671 5.99094 22.6554 -35.9985 6.40664 21.7492 -36.6102 5.35682 23.0574 -30.0331 15.7514 22.6923 -31.114 15.7841 23.466 -29.876 15.4776 24.5639 -29.0268 15.2614 21.9262 -29.9896 14.9664 20.9673 -32.0922 16.5641 23.7628 -31.5867 17.5592 25.1231 -30.4824 18.2454 26.5587 -33.4583 10.3851 20.4797 -32.3886 10.1224 21.1842 -31.7995 11.2053 20.2977 -34.4737 11.2402 20.3995 -35.2871 10.2925 21.2154 -30.5601 11.3792 20.9674 -30.452 12.3731 20.9467 -29.3558 19.6177 26.9414 -29.3873 18.0514 26.7041 -30.1073 19.7557 29.1401 -31.524 19.7651 28.0832 -29.0982 16.523 26.8472 -28.4108 15.3899 27.6945 -31.2955 20.0015 25.7188 -32.2433 19.3939 26.7748 -31.1654 21.3211 25.8171 -32.6893 22.0471 25.462 -34.3043 21.8745 25.566 -34.2574 23.162 23.8225 -5.9842 25.0961 39.3118 -4.99958 25.0448 39.4789 -7.2422 24.6568 39.3259 -5.45793 24.3198 38.9649 -8.06605 25.8355 40.3038 -8.85125 24.3664 39.7409 -8.89726 25.459 39.8947 -8.92147 26.3518 40.3444 -4.75553 23.3197 39.2734 -3.65058 23.949 38.6617 -4.36568 21.6304 39.4234 -9.68306 23.4384 38.692 -5.75798 19.942 40.7759 -5.78091 20.809 39.506 -6.65765 18.8427 41.0407 -7.15966 17.8962 41.3695 -3.8808 21.0093 40.4071 -1.03775 25.2483 39.711 -2.10399 25.3647 38.925 -2.33438 24.1473 38.8905 0.106946 26.7267 39.5465 -2.01013 26.9756 38.4664 -2.49397 22.9013 38.7901 -2.11859 28.7714 38.6998 0.663629 31.0632 39.0691 1.39309 29.868 39.9297 -2.09932 30.3989 38.2657 2.42462 29.3693 39.2238 -2.99734 29.862 39.6145 -21.0872 32.356 42.4551 -19.8482 31.9353 42.2185 -21.1983 32.5205 44.1458 -22.3218 31.7662 42.7842 -18.613 31.0649 44.7569 -19.0597 31.5408 46.265 -17.9924 30.3213 43.3196 -15.5928 29.3449 41.5749 -16.4152 29.2383 42.6142 -14.6383 27.9938 41.5377 -17.4735 29.1211 42.7768 -17.3501 28.0535 43.8181 -16.4164 27.5483 43.3062 -13.4867 28.052 42.3731 -14.3037 27.5955 43.0259 -17.2357 27.3391 45.2369 -11.4276 24.6478 43.3814 -12.6805 24.9798 43.6873 -11.2602 25.0637 42.4876 -10.4904 24.7739 43.0563 -13.0195 26.0059 44.6675 -13.4456 25.0233 45.5213 -13.6828 27.4235 44.3729 -10.4996 26.1729 42.1123 -15.2594 27.2566 43.755 -10.1919 28.0682 39.8757 -9.57798 26.908 39.6199 -10.8283 27.7257 41.2546 -10.9554 28.7125 41.3557 -11.7671 28.1136 39.8571 -10.8033 28.1426 42.1632 -20.2183 35.4181 39.5069 -20.3394 36.1823 37.7651 -19.3071 35.9834 40.2938 -19.2994 37.5649 39.9811 -18.9737 37.3837 40.909 -19.5613 38.1729 40.7305 -19.6369 39.2612 40.141 -20.151 35.7358 36.7652 -21.0381 37.1304 37.1247 -18.5179 38.6751 41.5237 -19.8003 41.5254 43.9024 -21.4878 41.0708 43.3391 -21.6853 41.7056 44.2963 -21.6851 40.1825 42.0417 -23.0385 40.2491 43.2271 -20.2895 39.9859 40.869 -18.5935 39.7634 40.9341 -21.8137 43.65 45.4846 -20.7609 44.2202 44.1253 -21.194 43.3529 46.6229 -22.3204 42.4404 45.4911 -20.7089 44.2279 42.86 -19.5975 45.1173 43.6082 -21.1686 41.0313 47.951 -21.9559 40.2292 51.1163 -21.42 41.3454 50.6316 -22.5643 42.0661 51.2423 -20.4703 41.1045 49.4212 -19.0322 42.1431 49.1838 -23.5622 42.6862 50.9888 -16.7215 28.7127 39.2268 -15.979 28.3681 38.179 -16.2024 29.714 37.8623 -15.6785 26.839 38.3329 -17.2995 29.8715 36.8336 -14.6693 26.4651 39.5939 -13.2331 27.353 39.7184 -18.6689 29.6446 35.7661 -18.9511 30.6708 34.4999 -18.2173 29.9915 34.5075 -18.052 30.9019 34.1281 -19.3117 31.8596 36.1039 -18.9256 31.4094 37.195 -21.8648 30.3035 37.2663 -22.3605 31.3736 36.095 -22.3863 34.1278 41.3981 -23.9608 33.3833 41.5286 -21.6989 33.2371 40.6893 -22.074 33.0063 39.486 -24.9737 31.74
[...]
POINT_DATA 1686
FIELD FieldData 1
normals 3 1686 double
-0.417332 0.493678 -0.762965 0.821531 -0.332139 0.463433 -0.273288 -0.390179 -0.879247 0.849077 0.487779 0.202832 -0.951697 -0.257011 -0.16798 -0.215761 0.959616 -0.18051 -0.447959 0.892843 -0.0465232 -0.382615 -0.792762 0.474483 -0.0366788 -0.199287 -0.979254 -0.00399357 -0.902938 -0.429752 0.543997 0.744136 -0.387722 0.12006 -0.662161 -0.739682 -0.341134 -0.874799 0.344027 0.540809 -0.58221 -0.60709 0.552829 0.564312 -0.613133 0.190591 0.964356 0.183555 -0.435948 0.709906 -0.553157 0.497718 -0.150675 -0.854151 -0.837865 0.54485 0.033468 -0.968746 0.144583 -0.201563 0.133605 0.623041 -0.770694 -0.122452 0.333196 0.934872 0.185986 -0.598157 -0.779498 0.73369 -0.677393 0.0532646 0.493597 0.678205 0.544426 -0.812029 -0.238351 0.532727 0.469766 -0.209314 0.857617 0.789145 -0.553139 0.266998 -0.293917 0.359313 0.885724 0.499532 0.359556 -0.788154 -0.698253 -0.682955 0.214512 -0.315762 -0.782424 -0.536757 0.516925 -0.345551 0.783188 0.294023 -0.821088 -0.489249 0.794594 0.260399 0.548464 0.0698712 -0.947371 0.312419 0.488132 -0.599948 -0.633869 0.616492 0.509019 0.600698 -0.197305 0.756846 0.623101 -0.563588 -0.129212 0.815888 0.503627 0.684642 -0.526901 0.673445 -0.119751 0.729473 -0.331113 0.921926 -0.201038 -0.582075 -0.47829 -0.657592 -0.685173 -0.451257 0.571756 0.802254 0.584171 0.123017 -0.586464 0.605118 0.538417 -0.74723 -0.474008 -0.465794 -0.405175 -0.907929 0.107226 0.635604 -0.378601 -0.672806 0.876177 -0.212205 0.432762 -0.646054 0.0413141 0.762173 -0.153057 -0.759127 0.632692 -0.232243 0.972335 0.0250617 0.351539 -0.909058 -0.223684 -0.271394 -0.371554 -0.887859 0.528684 -0.0332628 0.848166 0.901937 0.0906754 -0.42224 -0.305188 0.869413 -0.388563 0.722122 0.673265 0.158914 0.924336 0.362507 0.119132 0.827514 -0.457309 0.325715 0.780982 0.624507 -0.007568 0.863531 -0.162695 -0.477331 -0.147101 -0.645363 -0.749579 -0.472268 0.874411 -0.11121 0.395445 0.156501 0.905059 0.551258 -0.634987 -0.541208 -0.32785 0.155006 0.931927 -0.446689 -0.831701 0.32976 0.0544149 0.153091 0.986713 -0.155892 -0.370254 -0.915756 -0.174803 0.618307 -0.766251 0.923124 0.344063 0.171649 -0.391308 -0.494082 0.776377 0.568563 -0.214211 0.794261 0.959871 0.279871 0.0178822 -0.178536 -0.816326 0.549306 -0.962778 -0.101322 -0.250585 0.867683 0.48565 0.106158 0.855423 0.451612 0.253572 -0.100453 -0.94308 -0.317033 -0.676543 -0.0814114 0.73189 -0.077815 -0.996408 -0.0334096 -0.500589 0.865672 -0.00480353 -0.699989 -0.0493655 -0.712445 -0.0713737 0.461335 -0.88435 -0.456834 0.887641 -0.0582828 0.865437 -0.497991 0.0549912 -0.0715165 0.57019 0.818394 -0.396109 0.802445 -0.446295 -0.124186 -0.172598 -0.977132 -0.0584268 -0.903546 0.424489 0.534185 0.640892 -0.551275 -0.951168 -0.286449 -0.115005 -0.604355 -0.294223 -0.740397 -0.0815872 -0.545479 -0.834144 -0.422843 -0.509153 0.749644 -0.202701 0.878068 0.433484 0.609291 0.553222 -0.568075 -0.444638 -0.861595 -0.244848 -0.206261 0.681293 0.702351 -0.971402 0.12875 0.199505 -0.778271 -0.398643 0.485158 -0.206174 -0.494568 -0.844331 -0.0131273 0.153899 0.987999 -0.565544 -0.601687 0.564033 0.252992 -0.7187 0.647661 -0.464586 -0.741452 -0.484157 -0.353536 0.73764 0.575238 -0.0169971 -0.878741 0.476997 -0.755309 0.591461 0.282282 0.0990454 0.426919 0.898849 -0.263554 0.787834 -0.556648 -0.394901 0.901196 0.178603 -0.778736 0.421647 0.464525 0.443654 0.524178 -0.726917 -0.102962 -0.643712 0.75831 0.534926 0.837332 -0.112823 -0.862995 0.391377 -0.319475 -0.780193 -0.421283 0.462405 -0.426713 -0.875206 -0.227885 -0.332267 -0.00506838 -0.943172 -0.284065 0.904334 -0.318569 0.968517 0.237744 0.0738479 -0.169483 0.977246 -0.127533 0.242328 0.808858 -0.535748 -0.414984 -0.493522 -0.764345 -0.901564 0.428297 0.0611829 0.607167 0.676933 -0.416065 -0.914525 -0.284836 -0.287251 -0.757063 -0.0337176 -0.652471 0.314179 -0.927338 0.203313 0.0287254 0.652099 -0.75759 -0.922083 -0.192406 -0.335771 -0.313799 -0.934071 0.170416 -0.708973 0.700201 -0.0841174 -0.680892 -0.331647 0.65299 0.215377 0.212663 -0.953093 0.28031 0.0366867 0.959208 -0.89003 0.405376 0.208605 -0.706217 -0.70596 0.0536449 0.554995 0.768186 0.319172 -0.981602 0.0574564 0.182089 -0.765284 -0.0462218 0.642031 -0.477482 -0.372319 -0.795858 0.315054 -0.655008 0.686808 0.847957 -0.389384 -0.359652 -0.492915 0.597558 -0.632424 0.803422 -0.58471 -0.112372 -0.402125 -0.621774 -0.672081 0.431803 0.735774 -0.521712 0.381017 -0.876059 -0.295545 -0.747304 0.529838 -0.401009 -0.906635 -0.364416 0.212635 0.501278 -0.865247 0.00827814 0.303986 -0.0686786 0.950198 -0.811524 -0.469554 0.347776 0.285909 0.894671 -0.343248 0.60266 -0.763999 0.230448 -0.930345 0.0226101 0.365987 0.942117 -0.324832 -0.0830686 -0.214228 0.572121 -0.791697 0.342035 -0.607049 -0.717289 -0.703097 0.495012 0.510508 0.84529 -0.0384256 0.532924 -0.474655 -0.00378862 -0.880164 0.0491609 -0.591343 -0.804921 0.948231 -0.309073 0.0730207 -0.238205 -0.665647 0.707229 0.337499 -0.731799 0.592085 -0.500334 0.600498 0.623753 -0.745639 -0.33327 0.577022 0.593234 0.651855 0.472397 -0.166644 -0.392569 0.904499 0.368476 0.888678 -0.272903 -0.243049 -0.926414 -0.287548 0.458309 -0.0102559 -0.888734 0.913482 -0.218781 0.343053 0.438277 0.222006 -0.870992 -0.255236 0.413884 0.873816 -0.373486 0.658302 -0.653565 -0.764254 -0.628273 -0.145565 -0.353147 0.191509 0.915757 0.599594 -0.475251 -0.643912 0.197338 0.980291 -0.00933457 -0.976492 0.188779 0.104049 0.730041 0.63633 0.249249 0.142603 -0.84522 -0.515041 -0.694468 -0.249266 0.674968 0.114419 0.626369 -0.771084 0.313652 -0.926309 -0.208745 -0.317296 -0.48984 -0.812022 0.740508 0.379785 0.554447 0.458464 -0.849093 -0.262398 0.800743 0.117072 0.587456 -0.241484 0.962394 -0.124431 -0.79136 0.204747 -0.576045 0.173378 -0.474536 -0.862992 0.768637 0.457971 0.446609 -0.89147 -0.405413 0.202288 0.104344 0.5001 -0.859658 0.00943967 -0.800449 -0.599326 -0.0106298 0.59615 0.802803 0.994958 0.100117 0.00594939 -0.0602754 0.878149 -0.474575 0.536248 -0.34425 0.770668 0.366738 0.871521 0.325506 -0.960895 0.024054 0.275867 0.974516 0.209281 -0.0807484 0.527806 -0.482177 -0.699232 0.848257 -0.134116 -0.512322 0.152273 -0.981719 0.114196 -0.0233918 -0.130316 -0.991197 0.411762 -0.503093 -0.759835 0.780844 0.257746 0.569078 0.434503 -0.754444 -0.491956 -0.156157 0.0650187 0.98559 0.823351 0.557884 0.104201 0.0350821 -0.84984 -0.525872 0.0477915 0.954669 0.293807 -0.841099 0.51935 0.151091 -0.949928 -0.0628216 -0.306088 -0.181379 0.018004 0.983249 0.223336 -0.839523 0.4953 -0.581132 -0.448656 0.678965 0.121308 0.230927 0.965379 -0.356758 0.934026 -0.0178469 -0.455133 -0.812343 0.364627 -0.164004 0.754114 0.635936 0.579701 0.388685 0.716149 -0.953947 -0.255063 0.157884 -0.403983 0.855197 -0.32471 0.549817 0.0967501 -0.829663 0.844795 -0.111215 0.523405 -0.35256 -0.823046 0.445306 0.26564 0.337673 -0.903002 0.740354 0.502733 -0.446246 0.751777 -0.542911 0.374273 -0.677032 0.609335 0.412721 0.553983 -0.606344 -0.570482 -0.610802 0.668844 -0.423755 0.794306 -0.597371 0.110569 0.155308 -0.0675652 -0.985553 -0.705224 -0.649726 0.283752 0.932824 -0.342244 0.112735 0.140587 -0.374368 -0.916561 0.238054 -0.872558 0.426584 -0.269254 0.421295 -0.866033 0.584471 0.613603 0.530927 0.279402 -0.0739251 0.957324 -0.735248 -0.676547 0.0411628 -0.709481 0.254879 -0.657018 -0.910303 -0.172344 0.37636 -0.432919 -0.133747 -0.891455 0.967234 0.244285 0.0691659 0.258849 -0.111653 0.959443 -0.282645 -0.602864 0.746101 0.968476 0.210627 -0.133006 0.600097 0.205071 -0.773195 -0.0115892 -0.844742 0.535048 0.107371 -0.112232 -0.987864 -0.973558 -0.0795832 -0.214131 0.264537 -0.386044 0.883737 0.898934 -0.377756 0.221849 -0.0638276 -0.672807 -0.737059 -0.00461844 0.859591 0.510962 0.510179 0.135518 0.849324 0.594126 0.550701 0.586296 -0.969919 -0.0965854 0.223448 0.099837 -0.359249 0.927886 0.688905 0.723665 0.0414558 -0.0454244 0.951682 -0.303708 -0.858846 0.00403594 0.512218 0.550488 -0.549813 0.628227 0.658552 0.444115 0.607512 0.532418 0.821629 -0.203611 0.500901 -0.744759 -0.440944 0.549838 -0.392146 0.737495 -0.86689 -0.382705 -0.319435 -0.211794 -0.783619 0.584024 0.899216 -0.349413 0.26329 0.800143 0.596048 -0.0670636 -0.147635 -0.0114924 0.988975 -0.670085 0.723617 0.165424 -0.853831 0.00233615 -0.520546 -0.761166 -0.174943 0.624517 -0.449053 -0.760305 -0.469348 -0.458353 -0.725063 -0.514 0.526269 -0.7763 -0.346986 -0.799641 0.285808 0.528099 0.984622 -0.0512373 0.167013 -0.024213 0.892832 0.449739 -0.809416 -0.576233 -0.113141 -0.855418 0.51634 0.0406534 -0.831206 -0.376492 -0.409085 -0.282222 -0.948859 0.141486 0.822732 -0.319517 -0.470129 0.672073 -0.740435 0.00860092 -0.0223888 -0.351809 -0.935804 0.0900586 -0.956885 0.276152 0.067129 -0.0899524 -0.993681 -0.989734 -0.142478 -0.0112817 0.487721 -0.804032 0.340091 -0.187193 0.119329 0.975048 0.803155 0.58322 0.121643 -0.26309 0.699659 -0.664275 -0.493472 -0.517769 -0.698856 0.34154 0.895251 -0.286139 0.356949 0.911211 0.205626 0.333881 -0.728213 0.598523 -0.465401 0.884664 0.0277705 -0.321913 0.283015 -0.903479 0.407548 -0.912178 -0.0428463 -0.48467 -0.742835 0.461835 0.623984 0.413502 -0.663068 -0.413354 0.2059 0.886986 -0.567327 -0.032229 0.822862 0.671647 -0.45296 0.586274 0.456224 0.196734 0.867845 -0.667322 -0.557576 -0.493752 0.77092 -0.223946 -0.596265 0.324181 0.251916 0.911836 -0.150334 -0.519699 -0.841019 0.43349 -0.69104 -0.578403 -0.388934 -0.797689 0.460894 0.520991 -0.660053 0.541202 -0.669295 0.680499 -0.298271 -0.54599 -0.38709 0.743005 0.38775 -0.892329 0.231084 0.630593 0.718199 0.294181 -0.186402 0.261745 0.946966 0.660449 -0.327362 0.675752 0.769803 -0.289848 0.568675 -0.483065 0.0421456 0.87457 0.93721 0.126095 -0.325174 0.167407 0.415943 -0.893849 0.144047 0.983924 0.105564 -0.282031 0.00134463 0.959404 -0.807336 0.433743 -0.400095 -0.176575 0.983009 -0.0501464 -0.769263 -0.600669 -0.217786 -0.788565 0.227441 0.571345 -0.174691 -0.932714 0.315481 0.152134 -0.569879 0.807523 0.0250367 0.416845 0.908633 -0.786655 -0.182001 -0.589957 -0.127097 0.986723 0.10111 0.316058 -0.226944 0.921197 0.195021 0.537261 -0.820559 0.59523 0.79226 -0.134258 -0.587603 0.789223 -0.178465 -0.261839 0.608062 0.749467 0.325763 -0.18116 0.927933 0.250144 0.907147 0.338397 -0.00662354 -0.983773 -0.179295 -0.893696 0.410913 0.180163 0.717587 0.683302 -0.134789 0.997304 -0.0545102 0.0491166 -0.690195 -0.509112 -0.514232 -0.887648 0.125695 0.443037 0.492912 -0.379154 -0.783122 -0.860523 -0.31257 0.402244 0.90272 0.182513 -0.389597 0.793207 -0.405004 0.454747 -0.254186 -0.600346 0.758271 0.798628 -0.0301346 -0.60107 0.873862 0.303233 0.380019 -0.252501 -0.609174 -0.751765 -0.746579 0.0378492 -0.664219 0.364784 0.927295 0.0839984 0.723466 -0.377616 0.57793 0.388547 -0.906259 0.166513 0.924499 0.209932 -0.318167 -0.219844 0.930638 0.292542 0.0251888 -0.450818 -0.89226 -0.489087 0.276133 -0.827372 -0.77806 -0.310531 -0.54607 0.69432 0.501206 -0.516442 0.0481553 -0.845802 -0.531319 -0.175206 0.500153 -0.848027 0.252362 -0.683247 0.685191 -0.921914 -0.342674 -0.180693 0.756819 0.309303 0.57581 0.679392 0.57861 -0.451261 -0.447455 0.11579 -0.886779 0.16524 0.91036 -0.379395 0.899073 0.231071 -0.371852 0.733833 -0.679288 0.00754368 0.826944 0.23474 0.51094 -0.440885 -0.68493 0.580078 -0.755418 0.548379 -0.358643 0.25977 0.521643 -0.812655 0.960481 -0.0311877 -0.276592 -0.614075 -0.77562 -0.146035 -0.273109 -0.859419 -0.432216 -0.101999 0.628591 -0.771019 -0.398768 -0.867414 0.297618 -0.984447 -0.17231 0.0342685 -0.783434 0.607924 -0.129073 -0.421256 -0.360864 -0.832058 -0.0337052 -0.850129 0.525495 -0.450606 -0.134306 0.882562 0.354799 -0.934444 0.0305269 0.63961 0.103392 -0.761715 0.0156752 -0.677634 -0.735232 -0.623935 -0.781027 0.026481 -0.590613 0.806696 0.0204667 -0.67882 -0.383701 0.626081 0.021909 0.970014 0.242059 0.545059 0.293844 0.785217 0.248917 -0.658361 0.710353 -0.296142 -0.952206 -0.0748643 0.137199 -0.987844 -0.073084 0.94916 0.310559 -0.0514586 0.962792 -0.233771 -0.135584 0.340146 0.938636 -0.0571329 0.355903 0.0970699 0.929468 0.592923 0.023102 -0.804928 0.787477 -0.124697 0.603598 -0.121264 0.0916425 -0.988381 -0.350148 0.340325 0.872683 0.655576 0.740261 0.149108 -0.413934 -0.538223 0.734149 -0.890262 0.455286 -0.0122091 0.992828 -0.112471 -0.040538 -0.027663 0.508877 0.860395 0.19572 0.980632 0.00743073 -0.42038 -0.811152 -0.406587 0.223383 0.471756 -0.852963 -0.280356 -0.159464 0.946558 0.0177197 -0.138047 -0.990267 -0.89556 -0.265708 -0.356892 0.181225 0.23516 -0.954912 -0.378348 0.922932 -0.071057 -0.200625 0.522682 0.828585 0.932843 -0.357276 -0.0464554 0.132598 -0.394065 0.909467 -0.11863 0.658295 -0.743354 -0.824706 -0.411655 -0.387814 0.95205 0.124872 -0.2793 -0.0469396 -0.0103793 0.998844 -0.224338 0.855374 0.466912 0.0686533 -0.17612 0.981972 0.0703013 -0.739241 0.669761 0.744473 0.0195606 -0.667366 -0.126896 0.650316 -0.74899 -0.675486 -0.536294 -0.506071 0.906585 0.105207 0.4087 0.394037 -0.233656 -0.888898 -0.450661 -0.186957 0.872898 0.073267 -0.0672199 0.995044 0.508423 -0.160048 -0.846104 0.313332 -0.942221 -0.118505 0.927812 0.204746 -0.311841 0.456945 0.64002 0.617718 0.838187 -0.183328 -0.513648 0.844193 0.483419 0.231613 0.00600627 0.666747 0.74526 0.770561 -0.524104 -0.3627 -0.965551 -0.2565 0.0438 0.0494682 -0.997709 0.046147 0.0115948 0.242503 -0.970081 -0.928401 0.315589 -0.196153 -0.709114 -0.577396 -0.404686 0.215351 0.324437 0.921067 -0.0136245 -0.993628 0.11188 0.891631 0.452764 -0.000317857 -0.365956 0.895793 -0.252252 0.896723 0.431292 0.0993759 0.290936 -0.763057 -0.577149 0.709326 0.676448 -0.198178 0.75854 -0.1181 0.640835 0.817625 -0.023619 0.575266 -0.382592 -0.865882 0.32229 -0.24551 -0.262506 -0.933175 -0.585968 0.482468 0.651049 0.327029 -0.315064 0.890947 0.41529 -0.644412 0.64208 -0.639672 0.741204 0.203558 0.44793 0.382441 0.808145 -0.42259 -0.612829 0.667726 -0.825232 0.316813 -0.46757 -0.67217 0.349428 0.652754 0.761655 0.325885 -0.560072 -0.814616 0.56836 0.115617 -0.645297 0.543342 -0.537002 0.767694 0.640378 -0.0237226 -0.840415 -0.216984 -0.496608 0.384088 0.593313 -0.707429 -0.0907357 0.846556 -0.524509 -0.211225 -0.758929 -0.615963 -0.483889 -0.34399 0.804688 -0.217826 -0.927811 -0.302851 0.371567 -0.344761 -0.86202 0.40359 -0.488891 0.77337 0.589393 0.58305 -0.559168 0.783822 0.236908 -0.574019 0.566985 0.695858 0.440805 0.796625 -0.596597 0.0972649 -0.196427 0.0848202 -0.976843 -0.564263 -0.643921 -0.516694 0.978533 -0.20515 -0.0196826 -0.685879 0.27522 0.673664 -0.940124 0.180896 -0.288865 -0.254245 -0.0943237 -0.962529 -0.141827 -0.988788 -0.046729 -0.693269 -0.614538 0.376459 0.603218 0.15845 0.781679 0.971388 -0.236562 0.0210783 -0.394492 0.183018 0.900489 0.0577245 0.314715 -0.947429 -0.0981678 0.950152 -0.295931 -0.347 0.205366 -0.915104 -0.248832 -0.744787 -0.619173 -0.911438 -0.363915 0.191952 -0.975754 0.0177744 -0.218149 -0.997938 -0.0614796 -0.0184605 -0.108286 0.177161 -0.978207 -0.272149 -0.3354 0.90191 0.638626 -0.769511 0.00311678 0.244705 0.948256 -0.20231 0.992693 -0.120008 -0.0126132 -0.269832 0.851247 0.450078 -0.275483 0.706417 0.651985 0.913079 0.377096 0.155195 -0.966815 0.188696 -0.17223 -0.367323 -0.390235 0.84427 0.152389 0.550665 -0.820698 -0.832539 -0.320935 -0.45153 0.770837 0.465485 -0.434896 -0.971144 0.131978 0.198646 -0.912814 0.282836 -0.294573 -0.283747 0.40118 0.870944 0.425781 -0.651496 -0.627904 0.837372 -0.477943 0.265289 0.985077 -0.0570676 -0.16238 -0.0260818 -0.959387 -0.280886 0.0949431 -0.125787 -0.987504 0.255941 -0.00936937 -0.966647 0.030502 0.0528226 0.998138 -0.978372 0.154143 0.137939 0.146519 0.802878 0.577858 0.201956 0.851164 -0.484494 0.906389 0.321412 0.274142 -0.537942 0.699051 0.471111 0.389772 -0.122292 -0.912755 -0.0167861 0.429604 -0.902862 -0.479419 0.530342 0.69921 -0.712704 0.619789 -0.328503 0.970835 0.214819 -0.106455 -0.200666 -0.750269 -0.629944 0.862593 -0.109953 -0.493804 0.783006 -0.428697 0.450689 -0.647928 0.655151 -0.388543 -0.205778 -0.943278 -0.260542 0.330508 -0.701111 0.631829 -0.0795874 -0.318744 0.944493 -0.0553616 -0.998456 -0.00458067 0.342721 -0.492941 0.799719 -0.965364 -0.260847 -0.00549449 0.695394 0.0796222 -0.714204 -0.158231 0.846176 0.508871 0.249628 -0.461273 -0.851418 0.132832 -0.918902 0.371449 -0.851173 0.242666 -0.465422 0.297708 0.842821 -0.448355 0.956432 0.279692 -0.0837265 -0.687743 -0.62047 -0.376864 -0.926067 -0.28655 -0.245537 0.00580723 -0.508883 -0.860816 -0.982986 -0.055734 -0.175023 -0.93016 -0.344098 0.128059 -0.873524 -0.256559 0.413683 -0.441412 0.891673 -0.100369 0.490159 0.423904 -0.76161 0.60186 -0.264218 -0.753626 0.760507 -0.390936 0.518457 0.263762 -0.934657 -0.238426 -0.779087 -0.0655388 0.623481 -0.58081 0.80836 0.0959846 0.340215 -0.47075 0.814032 -0.19831 0.810641 0.55094 -0.978466 0.129953 -0.160366 0.974506 -0.104297 0.198648 -0.302464 0.191861 0.933651 -0.968275 0.237509 -0.0776755 -0.355213 0.123373 0.926608 0.406134 0.294198 0.86516 -0.456388 -0.880699 0.126808 0.675732 -0.692618 -0.252322 -0.261997 0.394305 0.880841 -0.52938 -0.799321 -0.284329 0.129718 -0.991172 -0.0273996 -0.572593 0.177271 -0.800445 0.980489 0.0951398 -0.172014 0.796964 -0.123674 0.59123 -0.121254 0.836398 0.534543 -0.317913 -0.812291 -0.488994 0.330325 -0.941593 -0.0654892 -0.231916 -0.496306 0.836598 0.52576 0.840286 -0.132268 -0.102783 -0.554358 -0.825907 0.536432 0.440848 0.719649 -0.649257 0.748367 -0.135692 0.871702 0.463895 -0.157915 0.55507 -0.735397 0.388701 -0.896393 -0.367731 0.247494 -0.418438 0.758407 -0.499728 -0.383766 0.301341 0.872879 0.630493 0.764998 0.131362 0.714923 -0.62123 -0.320871 0.644426 0.165485 0.746546 -0.567724 -0.19434 -0.799951 0.370349 -0.758752 0.535852 -0.183428 0.662374 0.726371 -0.821522 0.229431 0.521981 0.362007 0.615727 0.69988 0.12122 -0.530083 0.839236 -0.955566 -0.276879 0.101153 0.976858 -0.124679 0.173792 0.764743 -0.415803 0.492215 -0.19102 -0.83105 0.522367 -0.445485 0.69987 -0.558324 0.421233 -0.720765 0.55051 -0.869989 -0.427117 -0.246356 0.870892 0.453537 -0.189343 -0.606017 0.351718 0.713469 0.254133 -0.949377 0.184661 -0.0755927 0.101539 -0.991955 -0.681923 0.719754 -0.130134 0.404597 -0.523854 0.749585 -0.26495 0.821376 0.505117 0.375718 -0.55283 -0.743784 0.663707 -0.398019 0.633305 -0.815975 -0.465202 0.343179 0.54794 -0.62879 0.551711 0.683857 -0.52588 -0.505757 0.666144 0.687154 -0.289951 0.693579 -0.661741 0.284689 0.559473 0.467072 -0.684714 -0.89273 -0.333147 0.303392 -0.642403 0.588952 -0.49036 0.498044 -0.00393732 0.867143 0.181099 -0.864613 0.468666 -0.316945 -0.860675 -0.398477 -0.603139 -0.451276 -0.657703 0.113974 0.986015 -0.121594 -0.480649 0.165412 -0.861171 0.437166 -0.751704 0.493789 0.959362 -0.204531 0.194403 0.692703 -0.133643 -0.708733 -0.708828 0.634209 0.308774 0.413276 -0.0324224 0.910028 0.971073 -0.21652 0.100676 -0.390535 0.809903 -0.437652 -0.869593 -0.436356 0.231088 0.869727 0.314334 0.380485 -0.63216 0.113286 -0.766511 0.309356 -0.198593 -0.929978 0.320989 -0.518268 0.792694 -0.0251497 -0.504248 0.863192 -0.77656 -0.629365 0.0292172 0.535337 0.775645 0.33435 0.656889 0.547475 -0.518428 -0.0617107 0.476591 0.876957 -0.68201 0.694934 0.227879 0.179751 -0.909619 -0.374543 -0.693671 -0.00901554 -0.720236 -0.886528 -0.339645 -0.31418 0.37322 0.730198 0.572291 -0.870932 0.491139 -0.0161415 -0.746302 -0.0534101 0.663461 0.307488 0.507722 -0.804779 -0.679836 0.661789 -0.316004 -0.828917 -0.485389 0.278018 0.596248 0.631828 0.495258 0.832095 0.487467 0.264564 -0.57387 0.816101 -0.068213 -0.118239 0.978332 0.16996 -0.615466 0.53692 -0.576991 0.330683 0.935394 0.125249 -0.602003 0.752877 0.266025 0.891689 0.0985076 -0.4418 -0.781521 -0.411042 -0.46933 -0.237511 0.696653 0.676951 0.483513 0.531194 0.695735 -0.508102 0.783054 -0.35869 -0.295077 -0.236721 -0.925685 -0.18237 -0.966212 -0.182141 0.0580026 0.754009 -0.654298 -0.668787 0.367973 -0.646003 -0.757265 -0.632664 0.162131 0.596198 0.161979 -0.786327 -0.838032 0.442481 0.319237 -0.367548 -0.21834 0.904011 0.470483 -0.660821 0.584774 0.656494 -0.463231 0.595342 0.160774 0.941483 0.296247 -0.760293 0.13887 -