# vtk DataFile Version 4.0
Generated by libgran
ASCII
DATASET POLYDATA
POINTS 1686 FLOAT
-33.1283 1.78489 6.68499 -31.8135 0.911574 7.79377 -33.9338 1.93759 5.09995 -32.7282 2.7775 6.121 -34.2459 -1.18186 8.07412 -34.481 2.54062 4.08827 -31.3711 -0.19821 12.498 -31.194 -1.89007 12.9704 -31.9656 0.487644 11.5262 -32.0821 -0.593981 10.1055 -31.5748 1.06635 10.1351 -31.0225 1.19295 8.95291 -30.7023 -3.53037 15.4691 -29.9061 -3.16856 14.4676 -29.9474 -2.02309 14.4972 -29.3061 -0.449309 14.066 -28.6518 -0.188771 14.776 -28.6881 0.410283 13.3843 -32.3851 -4.2015 13.5331 -34.3169 -4.91966 15.0264 -33.2834 -4.35598 14.4081 -33.4046 -4.73469 16.1112 -35.1433 -5.38382 14.0869 -32.705 -5.08289 17.0373 -32.9882 -3.76724 17.6077 -33.2789 -3.36307 18.7065 -31.987 -3.29534 18.982 -31.5338 -4.79665 21.6576 -32.7016 -4.00478 22.2882 -31.928 -3.91818 20.6073 -31.311 -6.00533 22.165 -32.1846 -7.56997 21.9041 -32.4613 -3.96305 23.9543 -31.1571 -4.29427 19.2887 -31.5198 -8.23266 19.9328 -32.1369 -9.50749 19.7494 -30.2126 -8.45292 19.8291 -29.1057 -8.43353 19.7678 -28.7871 -7.09448 20.9431 -29.5744 -6.50498 22.384 -28.6241 -5.62758 20.9942 -31.272 -10.4708 20.7985 -22.9021 -12.4283 23.3964 -23.8334 -12.0336 22.5332 -25.0903 -12.9807 22.508 -22.5138 -11.5534 25.1414 -23.8963 -11.5301 25.5769 -26.5095 -13.9168 22.6767 -28.3763 -11.688 19.8903 -27.3658 -11.1918 19.0509 -27.8838 -12.7699 20.4859 -29.4029 -12.5131 20.8268 -27.1279 -13.6837 21.5793 -30.3014 -11.4709 21.5515 -26.3945 -12.5164 18.1916 -26.3314 -13.8507 17.144 -25.4464 -15.9544 17.973 -25.1107 -15.9063 16.6871 -26.3111 -15.1169 16.7118 -24.1548 -15.2752 18.8997 -23.294 -15.479 16.3004 -22.5972 -15.0518 19.3544 -22.5718 -16.1004 19.7827 -22.5596 -14.1648 12.4223 -23.587 -14.6397 12.2047 -23.8617 -13.0671 12.7286 -21.2936 -14.1714 12.8286 -21.1843 -15.0762 11.446 -21.1845 -13.7295 14.6366 -21.929 -14.3069 15.9641 -36.5313 16.0293 3.96219 -36.9574 15.5627 2.08119 -36.968 14.5787 1.90355 -35.4252 16.4834 5.01814 -34.7939 16.3013 5.89698 -33.8344 16.5709 5.81595 -34.1439 16.0589 6.61724 -40.1748 15.1362 1.80373 -41.0331 15.8861 1.12027 -39.1646 16.4381 1.28344 -39.4183 14.7391 2.51492 -40.452 13.3737 2.01342 -41.2094 12.3523 2.47021 -41.9055 11.2673 3.21633 -46.2032 11.9338 3.07815 -46.5062 10.9992 2.43581 -46.9186 13.2479 2.27803 -45.4502 13.4658 4.11791 -42.8562 10.7752 3.21961 -42.0125 9.7164 2.34282 -42.4911 9.9633 1.13089 -42.2706 9.00172 0.553672 -42.0248 8.24962 1.92375 -42.4968 11.4239 0.149085 -43.9041 10.4655 0.746885 -42.7292 11.7894 -1.11817 -42.1845 6.8047 1.50683 -42.3428 6.80922 3.11962 -44.1465 8.25656 -5.54348 -43.4367 7.96215 -6.6286 -44.4286 6.52367 -6.22366 -44.8485 9.78156 -7.14587 -45.653 9.22374 -7.57624 -45.7092 10.0296 -5.85855 -46.8853 8.84775 -8.10214 -46.5137 9.47175 -6.28892 -45.3785 5.03874 -5.82853 -45.0958 10.3703 -3.80446 -45.9261 10.3524 -4.85644 -45.0665 10.3705 -2.57763 -45.3127 10.2109 -1.49215 -45.9833 9.90298 -0.648909 -45.0583 9.74613 -0.141914 -47.0466 11.2697 -0.780175 -45.2415 11.0581 0.979427 -43.2502 4.47296 -8.59561 -42.1976 4.59808 -9.93756 -42.5019 3.43813 -8.37852 -43.4695 5.72171 -8.19478 -43.8593 6.95154 -8.56869 -45.4773 6.89151 -8.25279 -42.8918 1.90765 -7.76649 -46.6271 6.4528 -8.62178 -45.1393 1.57223 -4.72772 -44.5028 2.73676 -4.99505 -45.671 3.44576 -5.1179 -43.3517 3.82526 -5.50974 -25.2185 13.5128 19.4701 -25.7371 14.3607 20.3534 -24.3138 14.7915 19.7579 -26.5303 12.5871 18.5206 -28.2439 12.7119 20.0261 -28.7009 10.247 18.1144 -29.2121 11.8704 17.3381 -29.2257 9.09041 17.9476 -28.5049 8.36959 18.318 -28.5443 11.9478 16.5976 -30.7384 8.41128 18.3896 -30.0683 9.13336 16.7438 -30.929 7.96456 20.0054 -26.3438 4.30257 12.931 -26.1595 3.19751 12.7367 -26.6657 5.44208 13.536 -28.2067 4.74444 13.3827 -27.6039 2.41562 13.4562 -27.3616 2.13569 12.0003 -27.9928 1.69743 14.7952 -27.0294 1.39133 10.822 -26.6959 1.61231 9.82526 -29.1691 8.88896 15.5424 -30.4301 8.83546 15.124 -28.0437 9.13078 14.7516 -30.5298 7.38526 14.0909 -31.6591 8.7935 14.1397 -31.0677 6.15229 13.9798 -29.68 5.65863 13.6555 -33.6212 6.96024 5.72472 -34.7927 6.57507 5.22749 -32.9648 7.77871 6.27048 -32.6266 6.11767 6.82477 -36.4674 6.16099 6.10341 -34.5162 4.44562 6.96665 -37.6285 6.7981 5.8019 -37.6507 6.79381 4.28727 -40.8836 5.78618 4.95378 -39.352 5.22386 4.81078 -42.0955 6.2794 4.72353 -42.7003 5.70245 3.08764 -38.3429 6.52988 3.5579 -38.6442 4.47647 5.96955 -32.367 5.86016 11.8178 -31.8274 8.24808 10.9866 -32.9814 8.44919 12.288 -33.0595 8.71315 13.3605 -33.789 7.64639 13.7904 -32.0862 10.2447 13.5725 -34.1493 6.2946 14.3658 -34.7214 3.66492 9.5292 -34.1748 3.45328 10.7227 -33.9579 3.8882 7.70915 -33.4305 3.64035 11.8903 -25.6669 23.2591 28.6705 -26.0436 21.9744 29.1935 -25.658 22.8165 30.2469 -25.4282 23.4261 27.3731 -25.8607 24.8845 27.9806 -26.6591 26.0424 28.0481 -22.875 23.5684 28.5749 -22.5475 23.8376 30.8816 -23.4078 24.4381 32.0527 -22.2718 23.6035 29.6021 -21.8275 23.2957 28.632 -23.677 25.3865 29.1243 -23.3792 24.5897 33.2802 -25.4714 27.4884 33.4404 -25.1603 28.4642 34.2911 -26.1943 29.2929 33.5482 -25.7848 26.8276 32.6072 -24.8069 26.1588 32.3411 -23.6229 29.0641 35.3587 -25.504 25.259 31.6846 -20.887 26.0266 35.7437 -20.961 24.7408 36.0744 -20.8031 27.1192 35.6293 -19.8518 27.8608 36.4372 -20.8871 28.6091 35.8732 -18.3528 27.6628 37.2864 -18.5044 28.8521 36.7689 -21.8995 29.4968 35.5849 -19.9514 29.6665 35.296 -27.717 23.6641 33.4701 -28.2665 25.8917 33.8374 -30.2903 24.7477 35.9296 -30.133 23.6239 35.0724 -29.7141 22.9691 33.3363 -26.4035 23.4582 33.3589 -31.3796 20.6674 31.4285 -32.0014 21.5004 32.8855 -30.1143 20.4875 31.0572 -29.2463 20.2043 30.6494 -32.1417 22.5389 34.1466 -33.0213 22.086 34.0013 -34.818 22.509 33.8189 -35.5702 22.3914 32.5228 -35.1459 21.5317 32.0556 -36.6037 23.7363 31.7148 -37.0789 23.5417 33.3576 -37.557 24.2183 32.356 -36.2092 21.6119 33.8781 -37.1562 24.5556 34.9395 -37.3637 25.5573 33.0317 -41.0876 25.0496 36.2926 -40.5493 26.1584 35.7937 -39.5782 25.4049 35.3148 -38.1802 25.4061 35.0244 -41.0571 25.3356 34.1102 -37.0693 25.6437 34.6531 -34.3006 7.55608 23.4658 -34.1258 6.44839 24.1793 -35.633 7.46046 24.4527 -33.1059 7.65737 22.3335 -34.3506 8.8057 22.7027 -31.7122 6.62812 21.6432 -30.8071 6.12119 20.6266 -31.37 5.41332 19.9256 -29.7884 5.87337 19.6194 -31.9286 4.40333 19.2653 -31.6391 3.80279 20.537 -27.9114 4.56248 18.5725 -27.7085 5.63939 18.2865 -39.098 7.74797 24.1173 -39.3755 6.88367 25.0889 -40.8366 6.37406 24.5892 -39.4587 9.12405 24.5796 -40.8182 8.73093 24.1789 -37.599 5.68657 21.8414 -37.8 7.16208 22.7137 -36.8012 5.33437 22.5496 -36.0214 4.9646 23.0547 -34.6041 5.60193 22.0351 -34.975 4.39314 23.2956 -29.5933 15.7006 22.8703 -30.6268 15.6751 23.7065 -29.31 15.4539 24.7308 -28.5926 15.3041 22.0451 -29.5789 14.9 21.1521 -31.631 16.4005 24.0511 -31.1543 17.4235 25.4011 -30.0706 18.1513 26.8319 -32.5096 9.91 20.9449 -31.3666 9.79165 21.5686 -30.9852 10.93 20.639 -33.6102 10.6535 21.011 -34.246 9.57321 21.8198 -29.7321 11.2657 21.2148 -29.752 12.265 21.1842 -28.9699 19.5486 27.1993 -28.9736 17.9782 26.9882 -29.7391 19.7159 29.3888 -31.1476 19.685 28.3213 -28.6246 16.4682 27.1835 -27.874 15.4006 28.0616 -30.9053 19.877 25.9541 -31.8522 19.2778 27.0156 -30.7961 21.2007 26.0169 -32.3196 21.9012 25.612 -33.9356 21.7206 25.6804 -33.8512 22.9612 23.9036 -6.21309 25.2146 40.6766 -5.24601 25.1245 40.9146 -7.48799 24.8324 40.6122 -5.70038 24.4061 40.3878 -8.32276 26.0739 41.4987 -9.13388 24.6257 40.9187 -9.13984 25.7232 41.0411 -9.15407 26.6287 41.4652 -5.06844 23.385 40.7707 -3.89538 23.9469 40.2236 -4.76908 21.6843 40.9856 -9.92854 23.6994 39.8398 -6.36822 20.1039 42.271 -6.2516 20.9456 40.9894 -7.36383 19.0816 42.4991 -7.95489 18.1803 42.806 -4.38641 21.0612 42.0121 -1.29561 25.1403 41.4303 -2.28024 25.2921 40.5496 -2.5907 24.0921 40.541 -0.0395573 26.5298 41.3085 -2.03713 26.872 40.0408 -2.80091 22.8523 40.4601 -2.04201 28.6796 40.1953 0.848058 30.7989 40.7286 1.41632 29.5954 41.6929 -1.87323 30.282 39.704 2.47168 29.003 41.1044 -2.92059 29.8638 40.9854 -21.3129 33.002 42.609 -20.0499 32.6173 42.4515 -21.5032 33.2612 44.2807 -22.541 32.3896 42.9211 -18.9423 31.8678 45.1144 -19.4835 32.416 46.5659 -18.2381 31.0721 43.7451 -15.7639 29.9441 42.1728 -16.6471 29.9139 43.1662 -14.8637 28.5577 42.2469 -17.7167 29.8438 43.272 -17.6951 28.8188 44.3619 -16.755 28.2569 43.9263 -13.7596 28.6088 43.1445 -14.6297 28.2124 43.7672 -17.6897 28.179 45.8203 -11.8721 25.1889 44.442 -13.1342 25.5674 44.6353 -11.6269 25.5535 43.5437 -10.9101 25.2745 44.1827 -13.5035 26.6485 45.5427 -14.0324 25.722 46.4017 -14.093 28.076 45.1539 -10.809 26.6223 43.1721 -15.6377 27.9417 44.4531 -10.3077 28.3857 40.8638 -9.73174 27.1926 40.6819 -11.0381 28.1348 42.2155 -11.142 29.1286 42.2568 -11.8767 28.4713 40.743 -11.057 28.5992 43.1009 -20.3898 35.9247 39.5562 -20.4148 36.5613 37.7599 -19.5793 36.5978 40.3681 -19.6447 38.1598 39.9746 -19.3608 38.0438 40.9264 -19.9817 38.7869 40.6768 -20.0867 39.8387 40.0284 -20.1236 36.0598 36.8122 -21.111 37.4201 37.0016 -19.0141 39.3886 41.4962 -20.6134 42.3328 43.6194 -22.2304 41.724 42.9978 -22.5268 42.4125 43.8903 -22.2917 40.7367 41.7599 -23.713 40.7878 42.8638 -20.8188 40.5576 40.6828 -19.1191 40.4404 40.8478 -22.8917 44.4551 44.8599 -21.8316 44.9926 43.4929 -22.3015 44.3284 46.0446 -23.2858 43.209 44.9675 -21.7197 44.9117 42.2341 -20.7181 45.941 42.9576 -22.1329 42.1635 47.6057 -22.9793 41.6047 50.8111 -22.5245 42.7117 50.2316 -23.7538 43.3804 50.7251 -21.507 42.4425 49.0838 -20.1571 43.5811 48.7912 -24.7943 43.874 50.3813 -16.7683 29.0964 39.746 -15.9789 28.6851 38.7584 -16.1869 30.0065 38.3433 -15.7078 27.1669 39.0299 -17.237 30.0949 37.2587 -14.7953 26.8732 40.3824 -13.3562 27.7485 40.5534 -18.5627 29.807 36.1516 -18.7942 30.7617 34.8209 -18.0613 30.0855 34.8949 -17.881 30.9741 34.4731 -19.2174 32.0331 36.3425 -18.8739 31.6472 37.4717 -21.8169 30.5396 37.5028 -22.2627 31.5273 36.2426 -22.6285 34.6503 41.3657 -24.1758 33.8458 41.4621 -21.8656 33.7492 40.754 -22.1474 33.4331 39.5447 -25.1244 32.1726 41.6831 
[...]
POINT_DATA 1686
FIELD FieldData 1
normals 3 1686 double
-0.4661 0.517126 -0.717866 0.848713 -0.356195 0.39091 -0.339421 -0.364426 -0.867172 0.866166 0.475479 0.15387 -0.906943 -0.380158 -0.181479 -0.207727 0.967453 -0.144511 -0.490693 0.871316 0.00542537 -0.313579 -0.820546 0.477884 -0.103839 -0.185462 -0.97715 -0.0126489 -0.896163 -0.443545 0.494646 0.764167 -0.413973 0.0577113 -0.637569 -0.768229 -0.274599 -0.899694 0.339333 0.52163 -0.53789 -0.662252 0.480311 0.607582 -0.63257 0.161006 0.966199 0.201337 -0.493279 0.705662 -0.508643 0.456956 -0.106607 -0.883078 -0.851531 0.508479 0.127841 -0.98667 0.099274 -0.128948 0.0467939 0.662952 -0.747198 -0.0743956 0.284235 0.955864 0.160248 -0.563435 -0.81047 0.774044 -0.632433 -0.0297187 0.490791 0.683217 0.540683 -0.78146 -0.279041 0.558083 0.510405 -0.211314 0.833567 0.845638 -0.466956 0.258551 -0.322107 0.324915 0.8892 0.451428 0.411521 -0.791747 -0.622822 -0.741722 0.248882 -0.250799 -0.822922 -0.509803 0.562431 -0.28318 0.77684 0.319561 -0.787617 -0.526821 0.776624 0.348531 0.524768 0.159517 -0.926299 0.341356 0.530549 -0.568794 -0.628483 0.576443 0.588191 0.567225 -0.257858 0.750855 0.608051 -0.529476 -0.161353 0.832839 0.420864 0.716044 -0.556915 0.705442 -0.0369881 0.707801 -0.345327 0.908247 -0.236298 -0.58592 -0.513593 -0.626834 -0.671001 -0.433432 0.601576 0.796792 0.598276 0.0847802 -0.58573 0.621507 0.52024 -0.748237 -0.502746 -0.432884 -0.393151 -0.904215 0.166817 0.617411 -0.408081 -0.672513 0.885709 -0.17777 0.428856 -0.633439 0.0790375 0.769745 -0.129846 -0.735932 0.664488 -0.265082 0.96317 -0.0451173 0.353817 -0.916459 -0.186862 -0.290706 -0.417888 -0.860732 0.553706 0.0108455 0.832641 0.889417 0.0589391 -0.453281 -0.311002 0.848305 -0.428551 0.737886 0.668335 0.0940913 0.927298 0.368347 0.0666306 0.81975 -0.44495 0.360595 0.794403 0.603604 -0.0677208 0.850248 -0.222053 -0.477253 -0.177155 -0.696975 -0.694868 -0.451787 0.875603 -0.170905 0.415802 0.215477 0.88356 0.525027 -0.689396 -0.499079 -0.306751 0.226385 0.924475 -0.437715 -0.803757 0.402965 0.165185 0.124264 0.978403 -0.261008 -0.342353 -0.90259 -0.250416 0.641667 -0.724952 0.940849 0.329834 0.0775463 -0.309537 -0.511973 0.801293 0.650002 -0.242308 0.720267 0.959539 0.269666 -0.0810275 -0.128294 -0.830951 0.541351 -0.986529 -0.0810183 -0.142114 0.88193 0.47091 0.0210601 0.884826 0.433866 0.169836 -0.148862 -0.931579 -0.331664 -0.608503 -0.0897669 0.788458 -0.0876779 -0.995249 -0.0423383 -0.510369 0.857449 0.065609 -0.813281 -0.0771357 -0.576735 -0.204964 0.456624 -0.865728 -0.475696 0.879574 0.00789936 0.862997 -0.503146 -0.0456111 0.0193049 0.555675 0.831175 -0.459235 0.802575 -0.380758 -0.23875 -0.15901 -0.957974 0.0069769 -0.911109 0.412105 0.453539 0.658063 -0.601045 -0.953831 -0.300327 -0.00324553 -0.685972 -0.292595 -0.666206 -0.166641 -0.533806 -0.829025 -0.324913 -0.529286 0.783765 -0.171318 0.867365 0.467256 0.538486 0.572957 -0.617861 -0.453354 -0.865525 -0.212925 -0.142911 0.667048 0.731179 -0.947409 0.109234 0.300805 -0.717708 -0.419045 0.556144 -0.284811 -0.485231 -0.8267 0.0867937 0.138768 0.986514 -0.496582 -0.61941 0.60806 0.329569 -0.723961 0.606023 -0.500765 -0.741857 -0.445962 -0.300257 0.724192 0.620799 0.0539941 -0.883829 0.464684 -0.724549 0.575953 0.378558 0.200384 0.419096 0.885554 -0.338775 0.790766 -0.509824 -0.383577 0.892901 0.235788 -0.72732 0.401564 0.556554 0.325197 0.526686 -0.785397 0.0209929 -0.633265 0.773651 0.507968 0.847184 -0.155716 -0.897758 0.382649 -0.218197 -0.720264 -0.442677 0.534094 -0.410942 -0.89722 -0.161627 -0.42946 0.00396775 -0.903077 -0.327669 0.899954 -0.287604 0.964152 0.264575 0.0202711 -0.204053 0.973572 -0.102571 0.186993 0.823926 -0.534957 -0.418231 -0.52976 -0.73786 -0.936836 0.318107 0.145417 0.486415 0.748862 -0.450117 -0.893542 -0.395957 -0.211662 -0.790799 -0.129221 -0.59828 0.410473 -0.907899 0.085034 -0.100669 0.715512 -0.69131 -0.935285 -0.248685 -0.251789 -0.214479 -0.969507 0.118555 -0.768398 0.638085 0.0491097 -0.577402 -0.430443 0.693777 0.0926704 0.291633 -0.952031 0.386822 -0.0162834 0.922011 -0.884901 0.39365 0.248978 -0.70065 -0.711409 0.0546536 0.563014 0.74586 0.35596 -0.97805 0.0482221 0.202716 -0.743675 -0.0704738 0.664816 -0.501401 -0.350406 -0.791083 0.354709 -0.64772 0.67427 0.83362 -0.39396 -0.387134 -0.500164 0.614948 -0.609652 0.806531 -0.53603 -0.24936 -0.454433 -0.589533 -0.667788 0.31895 0.777845 -0.541505 0.354713 -0.860665 -0.365287 -0.774565 0.547573 -0.316564 -0.892629 -0.37231 0.254163 0.49516 -0.865968 -0.0701108 0.387041 -0.0691001 0.91947 -0.784445 -0.454271 0.422237 0.269385 0.887564 -0.373713 0.607564 -0.773469 0.180586 -0.890254 0.0401914 0.453688 0.930922 -0.3297 -0.157108 -0.27085 0.596915 -0.755204 0.248682 -0.601198 -0.75942 -0.639763 0.492681 0.589889 0.891873 -0.0696417 0.446892 -0.572164 0.000537541 -0.820139 -0.0325993 -0.577487 -0.815749 0.94093 -0.337265 -0.0300461 -0.184114 -0.677742 0.711876 0.38177 -0.754723 0.533521 -0.449992 0.565074 0.69152 -0.703977 -0.363963 0.609876 0.625864 0.627922 0.46261 -0.103588 -0.438839 0.892575 0.347506 0.903583 -0.250553 -0.256723 -0.912947 -0.317208 0.390841 -0.00443417 -0.920447 0.937421 -0.216077 0.273044 0.372631 0.22772 -0.899606 -0.193158 0.403149 0.894517 -0.375883 0.642356 -0.6679 -0.752539 -0.642411 -0.144888 -0.367035 0.199723 0.908513 0.614611 -0.475394 -0.629487 0.182089 0.983035 -0.0220251 -0.980513 0.174867 0.089531 0.716975 0.651485 0.248022 0.161925 -0.850518 -0.500399 -0.698348 -0.250071 0.670652 0.113779 0.616419 -0.779155 0.33057 -0.924268 -0.190925 -0.299858 -0.506952 -0.808137 0.726989 0.401734 0.556863 0.473909 -0.84578 -0.245085 0.785031 0.130106 0.605639 -0.248925 0.958749 -0.137245 -0.787316 0.18507 -0.588118 0.190594 -0.483803 -0.854171 0.752327 0.46974 0.461895 -0.88766 -0.41594 0.197619 0.126437 0.45339 -0.882299 0.0524225 -0.832448 -0.551617 -0.0426179 0.63916 0.767892 0.99393 0.102459 0.0400538 -0.0413063 0.850731 -0.523975 0.505099 -0.300398 0.809096 0.353476 0.888824 0.291629 -0.971127 0.0370216 0.235672 0.976961 0.206671 -0.0532372 0.543561 -0.484574 -0.685368 0.855955 -0.128454 -0.500839 0.167459 -0.977005 0.13198 -0.0100863 -0.146789 -0.989116 0.42898 -0.507949 -0.74697 0.769879 0.278724 0.574108 0.453363 -0.754536 -0.474485 -0.168433 0.0784404 0.982587 0.811914 0.57459 0.103163 0.0561269 -0.857809 -0.510894 0.0281424 0.960034 0.278466 -0.851507 0.507159 0.133139 -0.945179 -0.0842126 -0.315508 -0.192991 0.0333416 0.980634 0.231263 -0.826334 0.513507 -0.581539 -0.445457 0.680721 0.106367 0.250867 0.96216 -0.371718 0.927507 -0.0394499 -0.446 -0.812811 0.374729 -0.183618 0.763031 0.619732 0.564973 0.411503 0.715171 -0.951646 -0.266694 0.152463 -0.41337 0.842079 -0.346452 0.557669 0.0886064 -0.825321 0.840395 -0.0874549 0.534871 -0.344906 -0.81932 0.45799 0.270508 0.325115 -0.90616 0.650888 0.603791 -0.460197 0.825763 -0.503899 0.253381 -0.681436 0.508177 0.526689 0.543881 -0.502499 -0.672078 -0.700848 0.645834 -0.302837 0.849825 -0.526748 -0.0182598 0.0552622 0.0198195 -0.998275 -0.618171 -0.727688 0.297211 0.963475 -0.267647 -0.00896892 0.0595989 -0.282303 -0.957472 0.349022 -0.882849 0.314262 -0.388638 0.456166 -0.800546 0.591517 0.620743 0.514573 0.38721 -0.119379 0.91423 -0.664683 -0.744921 0.0573533 -0.796463 0.235308 -0.557025 -0.845493 -0.286697 0.450495 -0.513982 -0.106422 -0.851174 0.944011 0.329808 -0.00839558 0.370353 -0.159002 0.915181 -0.146291 -0.682014 0.716558 0.926175 0.312243 -0.211435 0.491083 0.325089 -0.80818 0.120132 -0.883701 0.452372 0.0557429 -0.114595 -0.991847 -0.977825 -0.140105 -0.155656 0.338978 -0.361282 0.868659 0.944866 -0.281923 0.166576 -0.0414317 -0.686039 -0.726384 -0.0263944 0.865488 0.500233 0.503117 0.15751 0.849743 0.580574 0.570337 0.581076 -0.931011 -0.215117 0.29486 0.212031 -0.333464 0.91861 0.593341 0.804875 -0.0110403 -0.169627 0.95859 -0.228763 -0.805423 -0.121671 0.580078 0.65985 -0.469189 0.586906 0.639933 0.530143 0.556268 0.520115 0.82693 -0.2137 0.516441 -0.743524 -0.424805 0.548997 -0.369477 0.749726 -0.859485 -0.40039 -0.317763 -0.167407 -0.76645 0.620104 0.91801 -0.301144 0.258013 0.792016 0.60604 -0.0736627 -0.154895 0.00684428 0.987907 -0.682864 0.717683 0.136487 -0.84057 -0.017248 -0.541428 -0.775451 -0.163312 0.609922 -0.434162 -0.775324 -0.458668 -0.454364 -0.718312 -0.52686 0.512708 -0.808505 -0.288876 -0.820542 0.336015 0.46239 0.967072 -0.0901943 0.237983 -0.0142251 0.905485 0.424139 -0.82535 -0.542672 -0.155901 -0.831306 0.554806 -0.033466 -0.817081 -0.350679 -0.457605 -0.335133 -0.930953 0.144955 0.837929 -0.369052 -0.402089 0.634489 -0.76976 0.0699534 0.0306923 -0.383583 -0.922996 -8.07069e-05 -0.955516 0.294941 0.116537 -0.113787 -0.986647 -0.995526 -0.0667087 -0.0669134 0.404467 -0.834655 0.373842 -0.251817 0.146692 0.956593 0.828348 0.533882 0.169734 -0.156285 0.685685 -0.710923 -0.466747 -0.514289 -0.719482 0.427702 0.855645 -0.29145 0.399393 0.89422 0.202129 0.256536 -0.725578 0.638534 -0.404265 0.913403 -0.0475951 -0.222082 0.265713 -0.938124 0.346179 -0.937803 0.0261985 -0.573046 -0.688973 0.443774 0.709183 0.345356 -0.614646 -0.474318 0.270724 0.837694 -0.601423 -0.00386717 0.798921 0.661599 -0.388556 0.641335 0.411198 0.263056 0.872764 -0.626616 -0.608557 -0.486837 0.806342 -0.258995 -0.531727 0.265142 0.289176 0.919824 -0.10219 -0.536702 -0.837561 0.437327 -0.73142 -0.52323 -0.445918 -0.761636 0.470179 0.462826 -0.654979 0.597322 -0.623631 0.691564 -0.364449 -0.602027 -0.33351 0.725489 0.338055 -0.895372 0.289876 0.641302 0.706093 0.300274 -0.228783 0.3096 0.922933 0.607431 -0.306272 0.732956 0.716818 -0.278968 0.639022 -0.545252 0.0995504 0.83234 0.961998 0.085663 -0.259271 0.24518 0.364631 -0.898293 0.17597 0.981533 0.0750187 -0.353002 0.0550411 0.934002 -0.765498 0.445975 -0.463808 -0.144067 0.983163 -0.112402 -0.779232 -0.580208 -0.236972 -0.815359 0.278441 0.507602 -0.239403 -0.914651 0.32573 0.0849982 -0.529337 0.844143 -0.0189591 0.464388 0.885429 -0.753663 -0.192872 -0.628325 -0.103957 0.993724 0.0412863 0.255018 -0.145833 0.955876 0.230032 0.490807 -0.840353 0.555532 0.81894 -0.143945 -0.620962 0.743042 -0.249588 -0.337032 0.627129 0.702224 0.28393 -0.115912 0.951813 0.178924 0.935894 0.303462 0.0612152 -0.99233 -0.107395 -0.926226 0.367947 0.081976 0.683751 0.717596 -0.132439 0.993796 0.0173654 0.109851 -0.623225 -0.591391 -0.511711 -0.919565 0.0971005 0.380752 0.561993 -0.395975 -0.726201 -0.859307 -0.344864 0.377703 0.91093 0.216947 -0.350912 0.788758 -0.334208 0.515912 -0.233629 -0.546706 0.804071 0.82646 -0.00919707 -0.56292 0.823862 0.419958 0.380639 -0.160505 -0.699405 -0.69647 -0.714537 -0.0717542 -0.695908 0.287058 0.957515 0.0276139 0.728332 -0.252196 0.637127 0.460206 -0.844886 0.272723 0.914981 0.262082 -0.306796 -0.314313 0.930767 0.186762 0.102468 -0.531261 -0.840989 -0.47568 0.147478 -0.867167 -0.726228 -0.437123 -0.530581 0.71743 0.467689 -0.516296 0.0719767 -0.878993 -0.471371 -0.136039 0.442471 -0.886405 0.19913 -0.639158 0.742849 -0.91398 -0.354055 -0.198206 0.713381 0.345435 0.609722 0.725769 0.529893 -0.438716 -0.411752 0.0661179 -0.908894 0.180236 0.888593 -0.421802 0.913182 0.212335 -0.347869 0.732945 -0.676258 0.0739331 0.805752 0.266652 0.528829 -0.46229 -0.65254 0.6004 -0.740076 0.519488 -0.427106 0.294316 0.468269 -0.833128 0.976338 -0.00776854 -0.216108 -0.5709 -0.812253 -0.119657 -0.213438 -0.893302 -0.395545 -0.0682881 0.577158 -0.813772 -0.377689 -0.860982 0.340676 -0.975667 -0.219166 -0.00633388 -0.79667 0.560775 -0.225498 -0.329668 -0.429829 -0.840575 -0.0559235 -0.81488 0.576925 -0.500283 -0.0833902 0.861837 0.361805 -0.92552 0.111843 0.675187 0.0594113 -0.73525 0.0582097 -0.725978 -0.68525 -0.616977 -0.785391 0.0499997 -0.561833 0.827241 0.00400904 -0.657297 -0.323761 0.680543 0.0643576 0.979044 0.193213 0.614156 0.278143 0.738545 0.255218 -0.654823 0.711386 -0.358938 -0.932966 -0.027158 0.119857 -0.978969 -0.165085 0.952839 0.277719 -0.122349 0.960208 -0.274609 0.0509025 0.375395 0.916504 0.138202 0.140076 -0.0330367 0.989589 0.765045 0.100616 -0.636068 0.620411 -0.262743 0.738956 0.110039 0.211826 -0.971093 -0.528032 0.258489 0.808929 0.625096 0.665786 0.40741 -0.314909 -0.512975 0.798554 -0.928268 0.371567 0.0160153 0.995926 -0.00978435 -0.0896423 -0.0193734 0.577948 0.815844 0.10202 0.990994 -0.08674 -0.346728 -0.888404 -0.300862 0.121393 0.413047 -0.902583 -0.201448 -0.10005 0.974376 -0.0341523 -0.22232 -0.974375 -0.915722 -0.324399 -0.237107 0.0750165 0.151051 -0.985675 -0.434877 0.898977 -0.0521738 -0.148372 0.53215 0.833548 0.946328 -0.310063 -0.0912389 0.197203 -0.37242 0.90687 -0.169883 0.661751 -0.730223 -0.839505 -0.42082 -0.343717 0.932812 0.140645 -0.331784 0.00996941 -0.0181321 0.999786 -0.20112 0.850771 0.48553 0.126737 -0.18205 0.975087 0.116931 -0.749844 0.6512 0.709636 0.0456418 -0.703089 -0.200208 0.672616 -0.712393 -0.734132 -0.514889 -0.442651 0.947425 0.0844638 0.308628 0.290496 -0.212141 -0.933064 -0.354028 -0.20726 0.91198 0.179243 -0.0768554 0.980798 0.475517 -0.167363 -0.863639 0.28239 -0.94966 -0.135651 0.899683 0.245913 -0.36069 0.460434 0.659907 0.593737 0.820007 -0.149321 -0.552533 0.828983 0.528663 0.18249 0.00897707 0.677983 0.735023 0.777298 -0.49062 -0.393827 -0.949373 -0.301563 0.0880396 0.0985051 -0.994155 0.0441927 -0.0468868 0.249508 -0.967237 -0.950454 0.273288 -0.148156 -0.722738 -0.584739 -0.368415 0.210846 0.333862 0.918738 0.0361076 -0.993196 0.110718 0.883537 0.394636 0.25224 -0.279896 0.942959 -0.18024 0.864978 0.362346 0.347157 0.387997 -0.711813 -0.585474 0.756825 0.651707 0.0499513 0.601742 -0.253507 0.757391 0.660601 -0.137542 0.73803 -0.468893 -0.876191 0.111482 -0.0284047 -0.1342 -0.990547 -0.703517 0.443588 0.555242 0.10019 -0.430776 0.89688 0.232026 -0.735656 0.636375 -0.648882 0.746531 0.147117 0.259461 0.2584 0.930542 -0.58361 -0.661467 0.471021 -0.684754 0.416707 -0.597886 -0.794941 0.30677 0.523412 0.8802 0.341815 -0.329258 -0.801632 0.597805 -0.00384817 -0.48571 0.640005 -0.595381 0.773889 0.590284 0.229479 -0.710593 -0.106439 -0.695506 0.561692 0.637503 -0.527345 0.0600531 0.905599 -0.419861 -0.108065 -0.674107 -0.730686 -0.659482 -0.392691 0.640997 -0.18987 -0.875403 -0.444543 0.529178 -0.279016 -0.801324 0.206926 -0.592974 0.778179 0.719048 0.596387 -0.356781 0.896787 0.241354 -0.370839 0.488053 0.606686 0.627484 0.736553 -0.651978 0.180038 0.0388846 0.239391 -0.970144 -0.472748 -0.547449 -0.690513 0.954673 -0.259533 0.145746 -0.815072 0.21842 0.53661 -0.841176 0.2827 -0.460981 -0.0261042 0.0642805 -0.99759 -0.169285 -0.96884 -0.180809 -0.777375 -0.605673 0.169846 0.442903 0.0479693 0.895285 0.938146 -0.294124 0.182682 -0.556903 0.11971 0.821906 0.2535 0.388786 -0.885767 -0.0194063 0.973988 -0.225768 -0.151296 0.291392 -0.944564 -0.13189 -0.682597 -0.718795 -0.944903 -0.326318 -0.0259795 -0.911106 0.0696462 -0.406245 -0.97538 0.00186013 -0.220523 0.0984943 0.276912 -0.955834 -0.461866 -0.403448 0.789879 0.594846 -0.802465 0.0469819 0.316703 0.947309 -0.0480018 0.969371 -0.176427 0.170858 -0.322116 0.819172 0.474551 -0.279762 0.726057 0.628152 0.920157 0.323405 0.220726 -0.93868 0.244446 -0.243159 -0.445621 -0.362171 0.818691 0.242693 0.51435 -0.822523 -0.819742 -0.281035 -0.499042 0.826315 0.405178 -0.391197 -0.970179 0.199407 0.137805 -0.966047 0.0349649 -0.255988 -0.30785 0.540805 0.782789 0.514816 -0.68134 -0.520327 0.931311 -0.236928 0.276633 0.968185 0.0900509 -0.233469 0.106025 -0.987378 -0.117659 0.0832744 -0.277647 -0.957067 0.201811 -0.135823 -0.969961 -0.0255243 0.0672682 0.997408 -0.973411 0.215802 0.0768193 0.165483 0.800879 0.575507 0.282011 0.827539 -0.485437 0.907348 0.26227 0.328533 -0.517607 0.740326 0.428953 0.437221 -0.161186 -0.884792 0.0699979 0.417248 -0.906093 -0.48446 0.571656 0.6622 -0.62557 0.681226 -0.380255 0.988161 0.146312 -0.0461579 -0.231434 -0.640153 -0.732559 0.866658 -0.0979076 -0.489201 0.741601 -0.538857 0.399576 -0.597945 0.742912 -0.300904 -0.242587 -0.878267 -0.412066 0.267492 -0.808185 0.524676 -0.125057 -0.44095 0.888777 -0.113948 -0.980849 -0.157961 0.249182 -0.626581 0.738447 -0.972187 -0.222385 -0.073468 0.720829 0.165574 -0.673046 -0.149034 0.761299 0.631041 0.262841 -0.327698 -0.907485 0.131893 -0.963933 0.231165 -0.845985 0.307803 -0.435393 0.323651 0.864417 -0.384751 0.965418 0.247212 -0.0827927 -0.692335 -0.521935 -0.498253 -0.915055 -0.189218 -0.35619 0.0505916 -0.328503 -0.943147 -0.969281 0.0254885 -0.244633 -0.96054 -0.27795 0.0103224 -0.908569 -0.293951 0.296809 -0.404961 0.912806 0.0528342 0.557706 0.54469 -0.62632 0.647211 -0.135534 -0.750165 0.707348 -0.521253 0.477445 0.230551 -0.929816 -0.28686 -0.772545 -0.0712204 0.630954 -0.547403 0.823184 0.150727 0.332298 -0.52936 0.780613 -0.223998 0.760094 0.609985 -0.934038 0.224993 -0.277401 0.92583 -0.202842 0.318896 -0.451384 0.124263 0.883635 -0.929456 0.299143 -0.215926 -0.504917 0.0598513 0.86109 0.289384 0.157906 0.944099 -0.511933 -0.856798 -0.0618165 0.678964 -0.705741 -0.20233 -0.414351 0.321524 0.851431 -0.485064 -0.746407 -0.455619 0.0899374 -0.990563 -0.10342 -0.413533 0.276994 -0.867332 0.998185 0.0444746 0.0406022 0.651036 -0.227825 0.724049 -0.173042 0.804093 0.568763 -0.263771 -0.748237 -0.608742 0.292139 -0.952009 -0.0912847 -0.422675 -0.551517 0.719149 0.593239 0.80386 0.0433161 -0.0292285 -0.534201 -0.844852 0.399348 0.330145 0.855293 -0.574548 0.79934 -0.175927 0.905419 0.418957 0.068489 0.431938 -0.805634 0.405442 -0.944005 -0.326872 0.0448179 -0.280037 0.82568 -0.489726 -0.535945 0.241098 0.809095 0.622175 0.710914 0.327872 0.73902 -0.627783 -0.244412 0.493486 0.054428 0.868049 -0.409063 -0.0823874 -0.908779 0.230392 -0.827089 0.512683 -0.296619 0.59618 0.746047 -0.898366 0.220878 0.379674 0.240824 0.518661 0.820363 -0.0715288 -0.633977 0.770037 -0.965412 -0.227808 -0.126816 0.915789 -0.204554 0.34567 0.633773 -0.494087 0.595155 -0.326773 -0.867385 0.375318 -0.292766 0.779145 -0.554275 0.295787 -0.794505 0.53035 -0.814097 -0.361818 -0.454239 0.898705 0.437331 0.0327273 -0.729144 0.288735 0.620469 0.198789 -0.973551 0.112612 0.114411 0.221161 -0.968503 -0.633169 0.757757 -0.157801 0.335672 -0.527884 0.780168 -0.252612 0.842769 0.475317 0.404821 -0.574441 -0.711433 0.608267 -0.410119 0.679569 -0.851024 -0.434544 0.294838 0.490289 -0.637311 0.594518 0.698177 -0.554413 -0.452961 0.706481 0.659689 -0.25631 0.659322 -0.667499 0.346034 0.621386 0.457949 -0.635737 -0.919079 -0.322426 0.226571 -0.589921 0.6012 -0.539028 0.422922 -0.00985355 0.906112 0.130532 -0.866695 0.481457 -0.29239 -0.856841 -0.424655 -0.573139 -0.442138 -0.689946 0.152076 0.980423 -0.125076 -0.416435 0.167889 -0.89353 0.379755 -0.757588 0.530891 0.9379 -0.230712 0.259068 0.733672 -0.160583 -0.660257 -0.713799 0.652597 0.254182 0.351917 -0.0318356 0.93549 0.955049 -0.245056 0.166822 -0.324146 0.824081 -0.464565 -0.901379 -0.398508 0.169432 0.853276 0.278758 0.440697 -0.573362 0.142967 -0.806732 0.362375 -0.212992 -0.907369 0.247071 -0.528362 0.812274 0.0778076 -0.527631 0.845903 -0.690582 -0.72208 0.0411952 0.444049 0.829269 0.339312 0.557353 0.64339 -0.524792 -0.0852197 0.43921 0.894334 -0.752153 0.598141 0.276573 0.274397 -0.870137 -0.40935 -0.716049 -0.0754855 -0.693956 -0.85089 -0.437743 -0.290462 0.305264 0.762512 0.570429 -0.926573 0.372576 0.051483 -0.705397 -0.153721 0.691943 0.208831 0.552667 -0.806814 -0.77595 0.561676 -0.287091 -0.748016 -0.610465 0.260394 0.573654 0.667423 0.474833 0.831801 0.450865 0.323772 -0.53066 0.840541 -0.109046 -0.0871675 0.982861 0.162441 -0.54681 0.562684 -0.619988 0.36449 0.919117 0.149571 -0.584552 0.780869 0.220323 0.919672 0.0600848 -0.388063 -0.771346 -0.368033 -0.519208 -0.2447 0.692728 0.678417 0.479096 0.539388 0.692479 -0.523521 0.774337 -0.355426 -0.273486 -0.230505 -0.933849 -0.0599571 -0.976558 -0.206734 -0.066492 0.772572 -0.631436 -0.740109 0.292339 -0.605621 -0.658175 -0.733052 0.171582 0.533706 0.265156 -0.803026 -0.871887 0.315967 0.374135 -0.289604 -0.294913 0.91058 0.582282 -0.61088 0.536445 0.734701 -0.391608 0.553947 0.0514774 0.945437 0.321712 -0.797767 0.0578304 -0.600186 0.657337 0.0704766 -0.75