# vtk DataFile Version 4.0
Generated by libgran
ASCII
DATASET POLYDATA
POINTS 1686 FLOAT
-30.8079 1.17813 6.33453 -29.7355 0.845582 7.90303 -31.1202 0.882835 4.60254 -30.4655 2.14331 5.69063 -31.8876 0.512548 8.79871 -31.5112 1.14879 3.39302 -30.7802 0.292627 12.5852 -30.9182 -1.29124 13.3529 -30.9573 0.900193 11.4157 -30.5433 -0.319654 10.1738 -30.2978 1.39751 10.0964 -29.4058 1.4861 9.13976 -31.1327 -2.43216 16.1417 -30.1149 -2.32941 15.2923 -30.0298 -1.19952 15.1167 -29.1782 0.219977 14.539 -28.5119 0.583372 15.1903 -28.5436 0.930026 13.7152 -32.472 -3.32874 14.1076 -34.7459 -3.40059 15.2874 -33.5442 -3.18546 14.7606 -33.9756 -3.0997 16.4533 -35.4866 -3.9071 14.2996 -33.5081 -3.32148 17.5491 -33.5805 -1.87625 17.7556 -33.8634 -1.2891 18.7707 -32.5822 -1.3156 19.0983 -32.5755 -2.58437 21.871 -33.2874 -1.38105 22.5295 -32.6534 -1.63861 20.8082 -32.8268 -3.86389 22.1313 -34.121 -4.93035 21.4479 -32.9689 -1.42779 24.1823 -31.938 -2.3659 19.6108 -33.5117 -5.16739 19.3937 -34.445 -6.06845 18.7965 -32.325 -5.73826 19.2094 -31.2763 -6.0962 19.1688 -30.6772 -5.3932 20.7253 -31.3946 -5.00093 22.2664 -30.0195 -4.17859 21.248 -34.0247 -7.52714 19.4838 -26.3035 -11.2802 21.4006 -27.1265 -10.5157 20.6891 -28.4882 -11.2278 20.3485 -26.2457 -11.1296 23.5015 -27.6928 -11.0428 23.5064 -30.0205 -11.9674 20.1928 -31.3827 -8.76563 18.2296 -30.2238 -8.16302 17.7141 -31.0609 -10.0441 18.4026 -32.5683 -9.73284 18.7499 -30.5194 -11.3422 19.1922 -33.3604 -8.92585 19.8176 -29.2842 -9.24428 16.5376 -29.2386 -10.1513 15.1033 -28.5614 -12.4769 15.2041 -28.0586 -11.986 14.0751 -29.237 -11.1828 14.251 -27.4309 -12.2415 16.4905 -26.191 -11.606 14.0915 -25.9027 -12.2058 17.0789 -25.8211 -13.3266 16.9349 -25.0352 -8.95208 11.2803 -26.0047 -9.31548 10.774 -26.4377 -8.1685 11.9228 -23.8029 -9.09392 11.7593 -23.5295 -9.26086 10.1346 -23.8528 -9.48158 13.5823 -24.7526 -10.5301 14.4429 -36.2959 13.9473 1.83819 -35.9524 13.4254 -0.0452055 -35.6212 12.4875 -0.148531 -35.7612 14.6809 3.14984 -35.4148 14.6705 4.19099 -34.6003 15.215 4.39168 -34.9841 14.6126 5.09161 -38.6444 12.0477 -1.24147 -39.447 12.5391 -2.17973 -37.9658 13.6164 -1.49587 -38.0508 11.8619 -0.32006 -38.4252 10.2754 -1.04612 -38.8996 9.04643 -0.746113 -39.434 7.75555 -0.229671 -43.3926 7.57487 -1.97925 -43.145 6.78417 -2.8107 -44.0384 8.87669 -2.85492 -43.5039 8.97579 -0.557654 -40.1727 7.06634 -0.583534 -38.8437 6.33568 -1.13269 -38.8756 6.64866 -2.42101 -38.2659 5.8175 -2.91484 -38.4013 4.9517 -1.59756 -38.8084 8.1897 -3.26843 -40.1258 6.95649 -3.2805 -38.6322 8.6486 -4.51417 -38.0852 3.56577 -2.11364 -38.8467 3.33784 -0.701444 -37.8591 5.43152 -9.4201 -36.8181 5.36432 -10.2445 -37.5869 3.74424 -10.2101 -38.3403 6.94869 -11.1099 -38.8563 6.29947 -11.7851 -39.574 6.92256 -10.142 -39.7797 5.76177 -12.6765 -40.09 6.27334 -10.8172 -38.3028 2.08603 -10.1727 -39.6738 7.17711 -7.98871 -40.1361 7.10924 -9.24495 -40.0134 7.06715 -6.81461 -40.5709 6.75037 -5.89088 -41.4251 6.24161 -5.37424 -40.7285 6.17275 -4.56977 -42.6091 7.43499 -5.80995 -41.5471 7.29296 -3.52694 -35.372 2.16079 -12.1475 -33.979 2.62378 -13.0247 -34.564 1.21705 -11.7807 -35.9481 3.3084 -11.8021 -36.442 4.47839 -12.2395 -38.0354 4.10572 -12.4483 -34.8725 -0.421826 -11.4842 -38.9148 3.50882 -13.1701 -37.7411 -1.39199 -9.24532 -37.2732 -0.122331 -9.28714 -38.484 0.402012 -9.66336 -36.2392 1.17389 -9.44679 -26.112 12.6848 19.2348 -26.4836 13.7526 19.9346 -24.9014 13.5794 19.7545 -27.3802 12.2111 17.9516 -29.2292 13.0932 18.8721 -30.083 10.8035 17.1617 -29.7605 12.2426 16.0109 -30.9104 9.84299 16.9783 -30.6398 9.06523 17.6841 -28.9546 11.9169 15.5164 -32.6204 9.7091 16.9233 -31.2845 9.8764 15.557 -33.4268 9.65424 18.4043 -26.4694 4.78052 12.3375 -26.2118 3.67338 12.3646 -26.8516 6.01735 12.6411 -28.3201 5.19278 12.8617 -27.5133 2.96026 13.371 -27.4022 2.43191 11.9691 -27.753 2.39235 14.8133 -27.1379 1.59744 10.8349 -27.0052 1.72179 9.77633 -30.0708 9.29359 14.8507 -31.0945 9.24915 14.0034 -28.7314 9.22436 14.4612 -30.8967 7.70542 13.1328 -32.1075 9.00843 12.8213 -31.3055 6.41913 13.1175 -29.8486 6.03609 13.044 -32.4692 6.07868 4.81908 -33.1903 5.3986 3.9328 -32.3919 6.96758 5.59529 -31.5975 5.47162 6.1536 -34.7516 4.27407 4.13586 -32.7405 3.37583 5.76591 -35.8826 4.43328 3.40072 -35.3692 4.56942 1.98208 -38.0103 2.45819 1.51671 -36.4285 2.46295 1.94143 -39.1351 2.66397 0.840334 -38.9189 2.19797 -0.923418 -35.594 4.1514 1.05711 -35.9197 1.90361 3.2944 -32.0317 5.90033 10.8377 -31.4599 8.24961 9.85666 -32.9443 8.42331 10.7688 -33.2909 8.74212 11.771 -34.0117 7.63712 12.1092 -32.5359 10.3773 12.0779 -34.4084 6.29789 12.69 -33.4134 2.86493 8.31424 -33.1685 2.96779 9.61708 -32.277 3.07988 6.69937 -32.8326 3.50932 10.8605 -25.9775 23.1832 27.6002 -26.5567 21.9505 28.0597 -26.1005 22.6942 29.158 -25.6612 23.355 26.3202 -25.9065 24.8406 26.9651 -26.533 26.099 27.0469 -23.1687 23.0884 27.6238 -22.9079 23.235 29.9499 -23.7247 23.9169 31.1074 -22.6124 23.0036 28.6743 -22.1746 22.6653 27.7114 -23.7254 24.9855 28.2092 -23.7275 24.0163 32.3405 -25.3942 27.1977 32.5187 -24.9561 28.1196 33.3737 -25.8797 29.079 32.6429 -25.76 26.6111 31.6521 -24.8752 25.8173 31.4038 -23.3446 28.5078 34.4298 -25.662 25.0439 30.6901 -21.0078 25.2227 34.2041 -21.3208 23.9378 34.3426 -20.769 26.2974 34.2466 -19.7122 26.7996 35.1061 -20.6697 27.7342 34.7069 -18.2207 26.3116 35.844 -18.248 27.574 35.5117 -21.5796 28.7623 34.5992 -19.6351 28.7549 34.2437 -28.1611 23.7356 32.324 -28.4001 26.0054 32.7497 -30.6662 25.1099 34.7103 -30.6337 24.0047 33.8159 -30.2308 23.3525 32.0751 -26.8866 23.3471 32.2569 -32.1213 21.3751 30.0202 -32.6827 22.2504 31.477 -30.8797 21.0205 29.6977 -30.0439 20.623 29.3191 -32.7297 23.2634 32.7654 -33.658 22.9486 32.5675 -35.3637 23.6351 32.3237 -36.0627 23.6785 30.9936 -35.7413 22.7872 30.5043 -36.8585 25.1883 30.208 -37.4335 24.9962 31.819 -37.7642 25.7742 30.8316 -36.868 22.943 32.2833 -37.4429 25.9454 33.4424 -37.4177 27.0435 31.577 -41.3276 26.9206 34.6503 -40.6195 27.9658 34.2328 -39.7382 27.1077 33.7563 -38.3406 26.9284 33.525 -41.1524 27.2995 32.4889 -37.1911 27.0209 33.2113 -37.5197 11.0727 20.4408 -38.0021 10.135 21.2499 -39.0113 11.6309 20.9117 -36.0969 10.5318 19.8062 -36.86 12.0743 19.5994 -35.0596 8.98269 19.7567 -34.1338 8.02024 19.1856 -34.6423 7.36716 18.3955 -32.9875 7.30461 18.6493 -35.23 6.39032 17.711 -35.6142 6.08076 19.0594 -31.3731 5.37517 18.4745 -30.7736 6.29463 18.1954 -41.7587 13.0519 19.2905 -42.6647 12.5489 20.1237 -43.9497 12.5005 19.1284 -41.6684 14.5285 19.5119 -42.8539 14.5717 18.6424 -40.5514 10.1916 17.8632 -40.4198 11.7828 18.5192 -40.2461 9.72447 18.8381 -39.8958 9.20515 19.6177 -38.0948 9.06366 19.181 -39.3144 8.37215 20.2866 -30.1523 16.3856 21.5522 -31.3181 16.5371 22.1736 -30.2807 16.099 23.4241 -29.1611 15.7088 20.9206 -30.0113 15.6197 19.8239 -32.2459 17.4057 22.369 -31.8023 18.3167 23.8075 -30.7909 18.8675 25.3649 -34.3141 12.0833 18.5007 -33.5578 11.6419 19.4717 -32.4991 12.4254 18.7163 -35.0035 13.1538 18.1171 -36.2171 12.5483 18.7383 -31.3898 12.2807 19.59 -31.0316 13.2137 19.6248 -29.5929 20.1238 25.8989 -29.7371 18.5725 25.6102 -30.5406 20.2467 28.0221 -31.8494 20.4109 26.8455 -29.6142 17.019 25.7184 -29.142 15.7866 26.5741 -31.3737 20.7119 24.5262 -32.4642 20.1455 25.4603 -31.1462 22.0027 24.7503 -32.6077 22.8517 24.4059 -34.231 22.7511 24.4667 -34.0908 24.1754 22.8427 -5.79202 22.8224 37.6964 -4.80092 22.7433 37.8035 -7.05738 22.4109 37.7691 -5.30568 22.0475 37.2926 -7.7945 23.5717 38.8336 -8.64631 22.1416 38.2675 -8.65685 23.2287 38.4613 -8.63337 24.1051 38.9422 -4.61108 21.0216 37.5247 -3.5284 21.6478 36.8714 -4.24902 19.3226 37.627 -9.57429 21.2933 37.2318 -5.34196 17.6209 39.0292 -5.49198 18.4469 37.7409 -6.03292 16.3808 39.2993 -6.36539 15.3721 39.6572 -3.70109 18.7176 38.5873 -0.869472 22.915 37.7939 -2.02434 23.034 37.1457 -2.19692 21.8124 37.0266 0.170049 24.4711 37.648 -2.05272 24.679 36.818 -2.38932 20.5737 36.8978 -2.20099 26.442 37.2196 0.501591 28.857 37.4114 1.37869 27.6477 38.0966 -2.30866 28.097 36.9249 2.31088 27.2278 37.2215 -2.98733 27.4114 38.3332 -20.2244 30.763 41.9413 -19.0527 30.2067 41.6486 -20.3322 30.722 43.6397 -21.5366 30.3245 42.1986 -17.9463 28.9013 44.0588 -18.3378 29.2574 45.6145 -17.4016 28.2562 42.5452 -15.1156 27.3043 40.6272 -15.9107 27.1538 41.6823 -14.2528 25.9057 40.4339 -16.9688 27.088 41.8725 -16.8831 25.9237 42.8086 -16.0005 25.4107 42.2194 -13.0745 25.8153 41.2283 -13.8989 25.3524 41.867 -16.7756 25.0315 44.1234 -11.237 22.2062 41.8244 -12.4457 22.5937 42.2272 -11.0801 22.6962 40.967 -10.3089 22.2975 41.4633 -12.6715 23.5419 43.3127 -13.1191 22.5109 44.0955 -13.2491 25.0192 43.1695 -10.256 23.7807 40.6598 -14.8516 25.0078 42.5975 -9.88672 25.865 38.6083 -9.31702 24.7014 38.277 -10.4975 25.4315 39.9731 -10.5465 26.4096 40.1757 -11.4537 26.0241 38.6619 -10.4089 25.7518 40.9163 -18.9475 34.013 39.3608 -18.986 34.9992 37.7303 -17.9503 34.3403 40.1779 -17.7133 35.9194 39.956 -17.469 35.65 40.8876 -17.9345 36.5198 40.7245 -17.8297 37.636 40.1944 -18.8758 34.66 36.678 -19.555 36.1064 37.2328 -16.8812 36.8352 41.5967 -17.8592 39.4254 44.1613 -19.5634 39.3532 43.4816 -19.7079 39.8682 44.5171 -19.8292 38.6896 42.0673 -21.2241 38.8515 43.1939 -18.4208 38.4062 40.9281 -16.7764 37.9513 41.0667 -19.4853 41.4428 46.1148 -18.1635 41.9462 44.9831 -19.1077 40.7763 47.2017 -20.2814 40.4415 45.826 -17.987 42.0781 43.736 -16.7966 42.6238 44.6694 -19.8211 38.3096 47.9534 -21.2166 37.1663 50.7728 -20.3551 38.1652 50.6047 -21.3566 39.0356 51.269 -19.3348 37.9105 49.4562 -17.6697 38.5469 49.5767 -22.105 39.9542 51.0672 -16.3716 27.1001 38.3508 -15.6828 26.7959 37.255 -15.7507 28.1861 37.0982 -15.5169 25.2393 37.2184 -16.8286 28.581 36.1138 -14.4865 24.6344 38.3677 -12.9747 25.3831 38.51 -18.2132 28.6108 35.0423 -18.373 29.7729 33.8762 -17.7225 29.0158 33.8161 -17.4526 29.9316 33.5188 -18.5983 30.853 35.5835 -18.2735 30.2564 36.623 -21.3139 29.5046 36.5785 -21.6798 30.7581 35.5501 -21.2518 32.8116 41.1436 -22.916 32.2862 41.2127 -20.701 31.9284 40.3161 -21.1201 31.9002 39.1
[...]
POINT_DATA 1686
FIELD FieldData 1
normals 3 1686 double
-0.325639 0.268898 -0.906451 0.74675 -0.0636478 0.662053 0.0133082 -0.564192 -0.825536 0.668019 0.696287 0.262556 -0.451465 0.838007 0.306471 -0.404244 0.830146 -0.383986 -0.361574 0.902999 -0.232071 -0.499544 -0.680871 0.535603 0.184462 -0.295433 -0.937386 0.229596 -0.924415 -0.304536 0.475033 0.792751 -0.381954 0.417019 -0.704165 -0.574671 -0.438583 -0.795023 0.419026 0.579252 -0.692267 -0.430387 0.664324 0.437614 -0.605943 0.187344 0.981887 0.0282754 -0.478936 0.618492 -0.622967 0.447201 -0.271838 -0.852124 -0.788997 0.580794 -0.200405 -0.918595 0.222369 -0.326705 0.283168 0.437508 -0.853465 -0.148239 0.523258 0.839182 0.177936 -0.728875 -0.66112 0.615683 -0.745032 0.256636 0.543338 0.700194 0.463155 -0.82621 -0.113042 0.551905 0.454951 -0.139545 0.879515 0.604058 -0.762289 0.232444 -0.107878 0.441032 0.890984 0.526136 0.183465 -0.830374 -0.855389 -0.517238 0.0278207 -0.438863 -0.549217 -0.711168 0.426373 -0.487778 0.761761 0.18928 -0.910751 -0.367024 0.795127 -0.0893498 0.599824 -0.138151 -0.990408 0.00255969 0.391514 -0.481518 -0.784129 0.657191 0.123577 0.743525 -0.0580527 0.57942 0.812959 -0.659392 -0.187149 0.728133 0.715726 0.635187 -0.290299 0.558422 -0.468285 0.684744 -0.214928 0.975136 0.0539993 -0.608058 -0.210606 -0.765448 -0.753667 -0.501472 0.424868 0.751356 0.390409 0.532019 -0.695701 0.477217 0.536903 -0.778619 -0.238108 -0.580566 -0.49941 -0.843788 -0.1965 0.659463 -0.24118 -0.711998 0.821248 -0.434731 0.36954 -0.686214 -0.123427 0.716852 -0.279747 -0.863299 0.420068 -0.105859 0.930421 0.350872 0.280193 -0.840083 -0.464492 -0.234584 -0.0669306 -0.969789 0.439447 -0.329547 0.835635 0.942261 0.16139 -0.293423 -0.236148 0.964588 -0.117493 0.691043 0.565022 0.450787 0.925317 0.218609 0.309835 0.83719 -0.529337 0.137531 0.755607 0.591466 0.28147 0.895412 0.0546034 -0.441878 -0.0741264 -0.308802 -0.948233 -0.507153 0.838179 0.200628 0.336854 -0.196444 0.920836 0.610306 -0.363382 -0.703903 -0.386692 -0.191214 0.902168 -0.513126 -0.857306 -0.0415833 -0.195435 0.141622 0.970437 0.14803 -0.380248 -0.912962 -0.183163 0.55762 -0.809637 0.730138 0.592006 0.341213 -0.383723 -0.602375 0.69993 0.430718 -0.0579403 0.900625 0.81444 0.544435 0.200693 -0.0261542 -0.856979 0.514686 -0.828818 -0.365572 -0.423576 0.652437 0.711743 0.260285 0.619713 0.671219 0.40672 0.245342 -0.915332 -0.319335 -0.719765 -0.313623 0.619338 0.185397 -0.977262 -0.102896 -0.689926 0.721158 -0.0627124 -0.44232 -0.0695411 -0.894157 0.0440476 0.580664 -0.812951 -0.640994 0.761169 -0.0987306 0.924142 -0.288058 0.250966 -0.40486 0.4426 0.800121 -0.436765 0.755577 -0.4882 0.172942 -0.0755837 -0.982028 0.0375355 -0.941383 0.335245 0.503998 0.785461 -0.359217 -0.813429 -0.447748 -0.371287 -0.327767 -0.326564 -0.886524 0.278609 -0.444548 -0.851325 -0.482898 -0.672478 0.560876 -0.466049 0.778564 0.42028 0.575026 0.711364 -0.404113 -0.193801 -0.90872 -0.369688 -0.480177 0.561844 0.673618 -0.996174 -0.0873801 -0.0015507 -0.753442 -0.587971 0.294303 0.0728534 -0.450313 -0.889894 -0.237442 0.0612531 0.969469 -0.522076 -0.749491 0.407062 0.270922 -0.706784 0.653496 -0.191354 -0.774649 -0.602746 -0.610546 0.596827 0.520606 0.0530666 -0.913608 0.403119 -0.907311 0.404846 0.113523 -0.210719 0.335991 0.917991 -0.276662 0.788543 -0.549235 -0.607803 0.784213 0.124841 -0.928399 0.212617 0.304743 0.4646 0.675604 -0.572456 -0.12044 -0.731119 0.671535 0.352325 0.934994 0.0406501 -0.846289 0.234999 -0.47809 -0.747115 -0.607671 0.26936 -0.188018 -0.907762 -0.37499 -0.132198 0.0107739 -0.991165 -0.401992 0.859476 -0.315759 0.86989 0.410181 0.273941 -0.34089 0.934523 -0.102278 0.164134 0.886035 -0.433592 -0.382507 -0.422404 -0.821744 -0.754079 0.645374 -0.121892 0.828137 0.472191 -0.302033 -0.885686 -0.051315 -0.461441 -0.625254 0.145487 -0.76674 0.0142461 -0.934415 0.355901 0.336728 0.504706 -0.794913 -0.84169 -0.0261087 -0.53933 -0.571034 -0.803875 0.166452 -0.469161 0.830442 -0.300424 -0.868233 -0.107786 0.484307 0.467626 0.0595142 -0.88192 0.0618164 0.0529232 0.996683 -0.894934 0.381303 0.231734 -0.637295 -0.725837 0.258872 0.512736 0.855527 0.0719461 -0.955766 0.0309557 0.292495 -0.664157 0.0127207 0.747485 -0.553105 -0.515636 -0.654366 0.424383 -0.580633 0.694813 0.81736 -0.318827 -0.479866 -0.68464 0.443171 -0.578678 0.746046 -0.642318 0.175622 -0.277647 -0.686764 -0.671764 0.593397 0.573086 -0.565202 0.475467 -0.856966 -0.198848 -0.735292 0.446049 -0.51028 -0.884295 -0.429325 0.183584 0.572662 -0.812359 0.11014 0.0888603 -0.0874288 0.9922 -0.632228 -0.767508 0.105919 -0.0115787 0.976329 -0.215982 0.782817 -0.51963 0.342319 -0.92903 -0.357024 0.0971434 0.990535 -0.0799962 0.111538 -0.201987 0.516235 -0.832287 0.715348 -0.380095 -0.586349 -0.930315 0.204396 0.304525 0.651498 0.209162 0.729247 -0.194502 0.00138977 -0.980901 0.41072 -0.46739 -0.78285 0.940159 0.0379287 0.338619 -0.142722 -0.768505 0.623723 0.240188 -0.702053 0.670396 -0.689642 0.567239 0.450148 -0.794766 -0.393544 0.462028 0.448163 0.712359 0.540087 -0.272588 -0.392645 0.878365 0.306836 0.922775 -0.233103 -0.124134 -0.946582 -0.297611 0.609287 -0.000993764 -0.792949 0.854184 0.101867 0.509895 0.527085 0.21595 -0.821917 -0.518316 0.439669 0.733512 -0.250678 0.710841 -0.657165 -0.829822 -0.521841 -0.197679 -0.373651 0.221814 0.900657 0.566995 -0.539021 -0.622875 0.321717 0.946579 0.0220548 -0.948269 0.311803 0.0596982 0.79134 0.532762 0.299909 0.0604015 -0.848916 -0.525065 -0.756461 -0.166967 0.632368 0.235052 0.617565 -0.750576 0.202774 -0.95594 -0.212276 -0.333675 -0.432826 -0.83745 0.753707 0.266374 0.600808 0.360432 -0.897651 -0.253596 0.798608 0.0242657 0.601362 -0.124993 0.983677 -0.129446 -0.726186 0.311081 -0.613093 0.158581 -0.482678 -0.861321 0.812862 0.363941 0.454755 -0.94535 -0.29072 0.147633 0.181944 0.556329 -0.810799 -0.131068 -0.728601 -0.672281 0.0569312 0.518333 0.853282 0.999852 -0.016051 0.00617485 0.0422997 0.918555 -0.393023 0.491644 -0.471993 0.731784 0.46437 0.790459 0.399419 -0.952148 0.109459 0.285365 0.992294 0.102133 -0.0701567 0.49893 -0.536439 -0.680663 0.850689 -0.236124 -0.469653 0.0144881 -0.99495 0.0993216 0.0180747 -0.110176 -0.993748 0.384777 -0.542066 -0.747068 0.775609 0.147936 0.613633 0.36014 -0.799842 -0.480158 -0.201279 0.0754506 0.976624 0.881408 0.445281 0.157621 -0.0456079 -0.842856 -0.536203 0.154242 0.937552 0.311777 -0.774066 0.622776 0.113895 -0.931649 0.0637389 -0.357724 -0.232645 0.020313 0.97235 0.0887968 -0.871057 0.483089 -0.669727 -0.385849 0.634497 0.0947549 0.19373 0.976468 -0.235968 0.971699 -0.010961 -0.572615 -0.755907 0.31736 -0.104158 0.755415 0.646916 0.582504 0.297614 0.756383 -0.985404 -0.138902 0.0984116 -0.277309 0.906267 -0.319029 0.60399 0.0482399 -0.795531 0.793611 -0.227596 0.564254 -0.47528 -0.783753 0.399799 0.35594 0.32017 -0.877951 0.936895 0.244095 -0.25029 0.45449 -0.693634 0.558848 -0.554709 0.802272 0.220583 0.485979 -0.784954 -0.384281 -0.277192 0.757501 -0.591064 0.551314 -0.764207 0.334723 0.374466 -0.19824 -0.905801 -0.883029 -0.454838 0.115678 0.771857 -0.51739 0.369518 0.295408 -0.52201 -0.80015 -0.0888301 -0.831562 0.548282 0.0501449 0.385161 -0.921486 0.549362 0.534295 0.642441 -0.0206421 -0.0679174 0.997477 -0.885267 -0.435113 -0.16425 -0.399777 0.386677 -0.831059 -0.986402 0.124685 0.107076 -0.199068 -0.0814991 -0.976591 0.941259 -0.0345313 0.335917 -0.0510173 -0.0977879 0.993899 -0.636003 -0.432625 0.639011 0.98627 -0.0866879 0.140557 0.814774 -0.0548034 -0.577182 -0.404829 -0.746316 0.528324 0.227357 -0.124708 -0.965793 -0.938435 0.0268182 -0.344413 0.0990406 -0.411318 0.906095 0.763896 -0.552064 0.334197 -0.0862621 -0.641203 -0.762508 0.0106294 0.841699 0.539843 0.433066 0.0693208 0.898693 0.578257 0.4815 0.658617 -0.982873 0.181413 -0.0324067 -0.226655 -0.259947 0.938645 0.832099 0.523496 0.183205 0.293432 0.889149 -0.351158 -0.920146 0.283553 0.270054 0.277203 -0.668147 0.690462 0.635397 0.264848 0.725346 0.619752 0.774847 -0.124575 0.475621 -0.776523 -0.413275 0.451069 -0.466567 0.760823 -0.85773 -0.302374 -0.415776 -0.352819 -0.776933 0.521434 0.825069 -0.455491 0.334348 0.84765 0.529385 0.035228 -0.242865 -0.0370085 0.969354 -0.620149 0.761401 0.188902 -0.841318 0.0876504 -0.533387 -0.781944 -0.188318 0.594223 -0.469157 -0.696222 -0.543292 -0.504758 -0.695805 -0.510955 0.486342 -0.774847 -0.403836 -0.760599 0.284365 0.583631 0.991099 -0.079043 0.107118 0.02348 0.876458 0.480906 -0.82833 -0.553711 -0.0852784 -0.838872 0.533398 0.108536 -0.862352 -0.343059 -0.372369 -0.296499 -0.946823 0.124957 0.786179 -0.320636 -0.528313 0.658553 -0.752195 -0.022604 -0.0996536 -0.294605 -0.950409 0.255855 -0.91953 0.298334 0.105841 -0.0934942 -0.989978 -0.946814 -0.320542 -0.0282034 0.614348 -0.688113 0.386105 -0.110615 0.147194 0.982903 0.782138 0.617453 0.0837366 -0.372727 0.736482 -0.564508 -0.545305 -0.485184 -0.683549 0.257383 0.93862 -0.229667 0.344342 0.90848 0.236839 0.352896 -0.753509 0.554697 -0.492607 0.854522 0.164716 -0.447847 0.318759 -0.83536 0.429254 -0.890605 -0.150215 -0.384935 -0.800511 0.459356 0.502933 0.470745 -0.724884 -0.293739 0.114864 0.948959 -0.576627 -0.0542645 0.815203 0.595066 -0.610616 0.522537 0.468803 0.0132346 0.883203 -0.735622 -0.384274 -0.557848 0.744371 -0.222261 -0.629692 0.352873 0.133756 0.926062 -0.199663 -0.422914 -0.8839 0.369464 -0.660529 -0.653604 -0.425591 -0.810992 0.401452 0.493413 -0.738021 0.460291 -0.63248 0.745222 -0.211219 -0.546772 -0.419105 0.724839 0.335795 -0.93211 0.135691 0.68482 0.647633 0.334056 -0.139561 0.184692 0.972837 0.654262 -0.473127 0.589994 0.771154 -0.398726 0.496325 -0.437581 -0.0111793 0.899109 0.928032 0.0913343 -0.361131 0.156877 0.490061 -0.857456 0.211781 0.959374 0.186411 -0.235808 -0.0716567 0.969154 -0.789379 0.517904 -0.32963 -0.103939 0.99312 0.053932 -0.813112 -0.529244 -0.242382 -0.748402 0.224261 0.624181 -0.178703 -0.939316 0.292832 0.137592 -0.657719 0.740591 0.0886282 0.320326 0.943152 -0.818622 -0.0651812 -0.570622 -0.0489634 0.978045 0.202562 0.2947 -0.381955 0.875935 0.256193 0.604214 -0.754514 0.702528 0.709224 -0.0587807 -0.465527 0.869871 -0.163124 -0.221262 0.600484 0.768415 0.244264 -0.269386 0.93154 0.349066 0.846739 0.401479 -0.145948 -0.943404 -0.297804 -0.825201 0.503012 0.256949 0.809055 0.584738 -0.0592587 0.970138 -0.231507 0.0723584 -0.734119 -0.303671 -0.607332 -0.87865 0.211285 0.428174 0.468352 -0.359934 -0.806904 -0.926602 -0.198019 0.319683 0.940073 0.0765155 -0.332277 0.704255 -0.531386 0.470802 -0.490965 -0.639148 0.591982 0.830795 -0.135731 -0.539774 0.868529 -0.0272904 0.494887 -0.305174 -0.362084 -0.880775 -0.654298 0.267642 -0.707292 0.536077 0.813311 0.226156 0.523738 -0.660277 0.538267 0.121466 -0.992469 -0.0158586 0.982921 0.00637627 -0.183916 -0.0185016 0.876845 0.480417 0.037434 -0.261092 -0.964588 -0.288233 0.555901 -0.779676 -0.729931 0.0417054 -0.682248 0.743625 0.474589 -0.470942 -0.0548727 -0.778758 -0.62492 -0.122817 0.611419 -0.781718 0.220786 -0.777878 0.588353 -0.955013 -0.216492 -0.202687 0.809571 0.173005 0.560949 0.702298 0.575739 -0.41869 -0.429628 0.246279 -0.868773 0.269867 0.915846 -0.297318 0.920352 0.158709 -0.357439 0.650485 -0.757136 -0.0601208 0.847372 0.0829286 0.524484 -0.522486 -0.679537 0.515013 -0.684107 0.674482 -0.277617 0.318156 0.57899 -0.750698 0.944304 -0.12801 -0.303155 -0.71991 -0.653426 -0.234016 -0.393492 -0.755169 -0.524293 -0.0256465 0.726962 -0.686198 -0.520625 -0.832351 0.190109 -0.999442 -0.0219825 0.0251395 -0.693026 0.720314 -0.0293606 -0.479128 -0.192986 -0.856267 -0.144204 -0.896668 0.41856 -0.452463 -0.181133 0.873194 0.221811 -0.970462 -0.0948843 0.636832 0.109844 -0.763138 -0.0892055 -0.576032 -0.812545 -0.726038 -0.685877 -0.0494089 -0.624812 0.780672 -0.0126845 -0.731811 -0.443811 0.517189 -0.0282117 0.973243 0.228038 0.364992 0.372519 0.853235 0.191306 -0.608754 0.769948 -0.173686 -0.981273 -0.0832868 0.277719 -0.958852 -0.0589423 0.932545 0.357299 -0.0519322 0.995455 -0.0918726 -0.0250851 0.206553 0.978431 -0.00289459 0.22997 0.116886 0.966153 0.661498 0.0292583 -0.749376 0.732021 0.0674937 0.677931 -0.0270906 0.106251 -0.99397 -0.486206 0.258907 0.834608 0.51322 0.849922 0.119322 -0.399714 -0.417353 0.816116 -0.833452 0.552399 0.0145748 0.950535 -0.27643 -0.141666 0.0274721 0.463104 0.885878 0.304601 0.950715 0.0579672 -0.58965 -0.724597 -0.356753 0.277129 0.487611 -0.82791 -0.298904 -0.176215 0.937872 0.00463865 -0.0872213 -0.996178 -0.913274 -0.143958 -0.381061 0.222558 0.265365 -0.938109 -0.273381 0.961692 -0.0202969 -0.160287 0.491814 0.855819 0.875439 -0.477365 -0.0756919 0.145521 -0.428716 0.891643 -0.132065 0.609002 -0.782097 -0.788588 -0.478294 -0.386477 0.951774 0.163254 -0.259758 -0.0766538 0.0414453 0.996196 -0.31221 0.857049 0.409869 0.048357 -0.118145 0.991818 0.0918504 -0.68135 0.726172 0.690427 -0.0734925 -0.719659 -0.147234 0.599009 -0.78709 -0.37595 -0.698637 -0.608743 0.749327 0.341106 0.567587 0.623886 -0.102976 -0.774702 -0.556938 -0.316369 0.767939 -0.0663113 -0.133531 0.988824 0.345004 -0.170529 -0.92298 0.46113 -0.880543 -0.109557 0.924502 0.135914 -0.356123 0.527921 0.613649 0.587141 0.79236 -0.237684 -0.561847 0.892583 0.405386 0.197375 0.100223 0.64307 0.759221 0.704186 -0.575751 -0.41549 -0.981652 -0.18254 0.0551279 -0.0256327 -0.998435 0.0496956 0.0277009 0.189524 -0.981485 -0.903161 0.371834 -0.214569 -0.663578 -0.637885 -0.390854 0.403217 0.303567 0.863286 -0.0753245 -0.989219 0.125585 0.795413 0.595585 0.112234 -0.469987 0.821686 -0.322405 0.788441 0.572783 0.224235 0.498573 -0.711872 -0.494634 0.609494 0.786254 -0.101592 0.676657 0.00302608 0.736292 0.722228 0.142346 0.676849 -0.288582 -0.895708 0.33827 -0.0686144 -0.353129 -0.933055 -0.746075 0.383968 0.544004 0.252978 -0.225644 0.94079 0.431751 -0.539748 0.722678 -0.768164 0.637528 0.0590077 0.265236 0.496307 0.826637 -0.414184 -0.633519 0.653533 -0.789351 0.150988 -0.595086 -0.803209 0.272268 0.529835 0.772226 0.422593 -0.474428 -0.900481 0.434171 -0.0250961 -0.642543 0.398044 -0.654751 0.646575 0.762086 0.0341424 -0.713156 -0.382078 -0.587729 0.35646 0.641643 -0.67914 -0.150011 0.791029 -0.593102 0.0423611 -0.792151 -0.608854 -0.521217 -0.428171 0.738243 0.0234649 -0.956065 -0.292214 0.555738 -0.268898 -0.786669 0.371701 -0.390144 0.842393 0.532274 0.687167 -0.494456 0.79359 0.389105 -0.467774 0.347487 0.799747 0.489548 0.858903 -0.456423 0.232302 -0.110673 -0.0515653 -0.992518 -0.370581 -0.733846 -0.569332 0.994755 -0.0213927 0.100021 -0.781136 0.234408 0.578688 -0.923842 -0.000596264 -0.382774 -0.142706 -0.235004 -0.961462 0.0584945 -0.997081 -0.0490646 -0.59815 -0.743113 0.299998 0.479538 0.251235 0.840788 0.991354 -0.0460335 0.122877 -0.513005 0.0848998 0.854177 0.0930868 0.335062 -0.937587 -0.252756 0.916718 -0.309421 -0.283111 0.147494 -0.947678 -0.0303549 -0.769225 -0.638256 -0.839957 -0.534453 0.0939813 -0.931691 -0.171614 -0.320156 -0.958002 -0.253375 -0.13429 -0.0266713 0.168322 -0.985371 -0.304332 -0.396044 0.866332 0.770382 -0.632185 0.0827826 0.0788451 0.980675 -0.17905 0.993621 0.0704563 0.0880501 -0.470482 0.774644 0.42258 -0.190358 0.734078 0.651839 0.936034 0.346567 0.0610813 -0.971237 0.220151 -0.0907373 -0.324932 -0.351662 0.877925 0.106771 0.5843 -0.804483 -0.872193 -0.279114 -0.401714 0.749511 0.465332 -0.47085 -0.96586 0.120345 0.229415 -0.644178 0.694218 -0.321086 -0.425059 0.182571 0.886562 0.360454 -0.566934 -0.740715 0.532731 -0.82206 0.201037 0.928167 -0.371731 -0.0179383 -0.184084 -0.881498 -0.434826 0.208435 -0.00986321 -0.977986 0.403147 -0.0513369 -0.913694 0.0565467 0.010061 0.998349 -0.973918 0.150485 0.16982 0.160038 0.777817 0.607773 0.19105 0.868138 -0.458078 0.912718 0.315815 0.259242 -0.529347 0.646502 0.549387 0.34957 -0.0400178 -0.936055 -0.0669886 0.49963 -0.863645 -0.461411 0.459051 0.759192 -0.832441 0.504032 -0.230205 0.961402 0.241802 -0.131296 -0.133161 -0.775883 -0.616663 0.812659 0.0385151 -0.581465 0.887485 -0.285774 0.361529 -0.778219 0.539508 -0.321414 -0.110425 -0.977393 -0.180303 0.516097 -0.608195 0.60311 0.0748264 -0.324289 0.942994 0.0737841 -0.99627 0.044737 0.51407 -0.399136 0.759225 -0.907597 -0.393932 0.14521 0.57036 0.134091 -0.810376 -0.20952 0.844221 0.493348 0.198721 -0.478666 -0.855213 0.325778 -0.860114 0.39252 -0.934878 0.0797565 -0.345894 0.0943976 0.847951 -0.521601 0.878417 0.419787 -0.228389 -0.632092 -0.733451 -0.250019 -0.898624 -0.425727 -0.105975 -0.0292022 -0.55834 -0.829098 -0.978852 -0.200746 -0.0393774 -0.844392 -0.46215 0.270959 -0.77019 -0.338451 0.54061 -0.57325 0.813992 -0.0938166 0.326601 0.425287 -0.844075 0.535737 -0.238902 -0.809884 0.866722 -0.243985 0.435044 0.344057 -0.898201 -0.273606 -0.666334 -0.151542 0.730091 -0.685162 0.712411 0.151736 0.526589 -0.359478 0.770376 -0.21063 0.801761 0.559299 -0.999035 -0.0246138 0.0363682 0.997973 0.0623468 0.0127393 0.0631938 0.0558086 0.99644 -0.710799 0.647111 0.275703 -0.0164377 0.0216211 0.999631 0.500825 0.444024 0.742979 -0.808568 -0.569312 0.148666 0.15092 -0.828628 -0.539072 0.12336 0.277326 0.952823 -0.928824 -0.275659 -0.247583 -0.401175 -0.897944 -0.180985 -0.432037 0.626856 -0.648379 0.948867 0.30194 -0.0921047 0.75858 0.0268855 0.651025 -0.353794 0.749598 0.559405 -0.0807589 -0.830901 -0.550528 0.524227 -0.849991 -0.051964 -0.184823 -0.558626 0.808565 0.325449 0.944543 -0.0438413 0.138571 -0.329193 -0.93404 0.365383 0.533887 0.762535 -0.778096 0.596467 -0.196962 0.764496 0.639439 -0.0816294 0.661286 -0.60721 0.44045 -0.815795 -0.564216 0.127035 -0.514961 0.674053 -0.529592 -0.519854 0.187752 0.833367 0.440292 0.874976 0.201395 0.858332 -0.452322 -0.242221 0.506812 0.259893 0.821947 -0.420208 -0.270641 -0.866129 0.460552 -0.679323 0.571326 -0.395087 0.585731 0.70769 -0.907098 0.0588717 0.416782 0.14755 0.655114 0.740982 0.152146 -0.447043 0.881479 -0.885302 -0.462351 0.0497215 0.963079 0.0894577 0.253921 0.787423 -0.330616 0.520249 -0.0500466 -0.855492 0.515391 -0.544571 0.600303 -0.585729 0.434665 -0.646893 0.626575 -0.763787 -0.546153 -0.344015 0.820361 0.564973 -0.0883944 -0.725893 0.293905 0.621851 0.345614 -0.902441 0.257199 0.056356 0.0604663 -0.996578 -0.743112 0.604282 -0.287451 0.308918 -0.568512 0.762472 -0.21779 0.836175 0.503368 0.313451 -0.606153 -0.730977 0.57543 -0.48968 0.655053 -0.887233 -0.336614 0.315449 0.429792 -0.705051 0.564076 0.612182 -0.622059 -0.488135 0.766904 0.58806 -0.256989 0.576293 -0.759914 0.300695 0.644819 0.378969 -0.66377 -0.941893 -0.19505 0.273483 -0.530517 0.68024 -0.505792 0.461639 -0.0648128 0.884697 0.0361397 -0.875326 0.482181 -0.425499 -0.810513 -0.402516 -0.64343 -0.353633 -0.678927 0.264743 0.957359 -0.115647 -0.429315 0.235926 -0.871796 0.30643 -0.809023 0.50158 0.911934 -0.346822 0.219299 0.68173 -0.241748 -0.690509 -0.591052 0.753176 0.288764 0.375033 -0.0951363 0.922117 0.923555 -0.361 0.129324 -0.244487 0.852814 -0.461448 -0.933699 -0.28559 0.215972 0.900198 0.17808 0.397405 -0.584142 0.179663 -0.791517 0.306226 -0.249538 -0.918671 0.226525 -0.546465 0.806265 -0.24526 -0.408575 0.879155 -0.897617 -0.43873 -0.0424237 0.655696 0.663916 0.359553 0.822943 0.341377 -0.454121 -0.0550442 0.552688 0.831569 -0.527373 0.844545 0.0928453 0.0108728 -0.9555 -0.294791 -0.576144 0.0838702 -0.813033 -0.911929 -0.170258 -0.373359 0.455679 0.67369 0.581807 -0.723435 0.668462 -0.172628 -0.811815 0.155248 0.562898 0.503443 0.370551 -0.780536 -0.457247 0.788728 -0.410894 -0.944308 -0.250101 0.213848 0.603112 0.591862 0.534747 0.894778 0.354673 0.271254 -0.434939 0.895303 -0.0962373 0.0390541 0.988962 0.142932 -0.517055 0.612419 -0.597995 0.465471 0.8781 0.110802 -0.481406 0.841449 0.24538 0.919567 -0.0654002 -0.387453 -0.806326 -0.331589 -0.489784 -0.169973 0.773599 0.610454 0.508871 0.494474 0.70466 -0.338039 0.827203 -0.448848 -0.253052 -0.251727 -0.93413 -0.377614 -0.913741 -0.149949 0.306195 0.663885 -0.682276 -0.483329 0.449839 -0.751025 -0.896807 -0.432494 0.0931959 0.70645 -0.0448733 -0.706339 -0.748375 0.645207 0.153758 -0.522732 -0.0343638 0.851804 0.225643 -0.679571 0.698047 0.454362 -0.544108 0.705338 0.339812 0.90391 0.2597