# vtk DataFile Version 4.0
Generated by libgran
ASCII
DATASET POLYDATA
POINTS 1686 FLOAT
-32.4548 1.27736 6.8466 -31.2726 0.637985 8.2302 -33.0336 1.18452 5.16108 -32.024 2.21673 6.21781 -33.3682 0.557763 9.36592 -33.4877 1.61925 4.02475 -31.7091 -0.0273239 12.9628 -31.8046 -1.6735 13.5937 -32.053 0.633044 11.8611 -31.9906 -0.549562 10.5197 -31.4545 1.10187 10.5028 -30.6806 1.11042 9.44463 -31.8814 -3.06994 16.2779 -30.913 -2.90565 15.3817 -30.8174 -1.76587 15.3014 -29.9458 -0.321418 14.824 -29.3241 -0.0508795 15.5592 -29.2012 0.411315 14.121 -33.3169 -3.78257 14.2076 -35.528 -4.05675 15.4554 -34.3533 -3.72507 14.9281 -34.7426 -3.83713 16.6294 -36.2774 -4.51704 14.4517 -34.2337 -4.14425 17.6854 -34.3756 -2.73402 18.0427 -34.672 -2.25317 19.1086 -33.3875 -2.25547 19.4241 -33.227 -3.69242 22.1373 -34.1299 -2.63195 22.807 -33.4273 -2.74019 21.0964 -33.2995 -4.96022 22.5316 -34.4938 -6.25242 22.1035 -33.8347 -2.66873 24.4643 -32.6893 -3.31681 19.8326 -33.9522 -6.81952 20.0698 -34.8084 -7.90737 19.719 -32.721 -7.30161 19.9293 -31.6383 -7.53553 19.8778 -31.0571 -6.46159 21.2137 -31.7306 -5.87104 22.7108 -30.5576 -5.09015 21.4386 -34.1971 -9.15366 20.6408 -26.0718 -11.7301 22.8385 -26.9874 -11.192 22.0384 -28.2656 -12.0951 21.8707 -25.6763 -11.1278 24.6939 -27.0611 -11.1352 25.1227 -29.7072 -13.0118 21.8958 -31.4807 -10.3491 19.4797 -30.4272 -9.74194 18.7772 -31.0166 -11.5305 19.8761 -32.5351 -11.3073 20.2427 -30.3019 -12.6145 20.8331 -33.3655 -10.388 21.183 -29.4382 -10.926 17.7496 -29.3599 -12.0744 16.5018 -28.4773 -14.281 16.989 -28.0914 -13.9961 15.7487 -29.313 -13.2478 15.8605 -27.2613 -13.7399 18.0921 -26.2667 -13.4898 15.5326 -25.713 -13.5386 18.5873 -25.6162 -14.6571 18.7393 -25.4602 -11.4332 12.0829 -26.449 -11.916 11.7397 -26.8404 -10.5267 12.5997 -24.1998 -11.4455 12.5063 -24.0161 -12.0012 10.9571 -24.1365 -11.3996 14.369 -24.9067 -12.265 15.5125 -36.1159 15.1297 3.09383 -36.0621 14.5804 1.18782 -35.9464 13.5959 1.05626 -35.3221 15.7118 4.34909 -34.8928 15.6107 5.35387 -33.9672 15.9685 5.47749 -34.4041 15.448 6.21104 -39.0821 13.8241 0.245975 -39.8447 14.491 -0.614134 -38.1121 15.2179 -0.0739406 -38.4605 13.5013 1.10924 -39.226 12.0423 0.423868 -39.9344 10.9405 0.755107 -40.653 9.78198 1.3552 -44.7883 10.2012 0.11877 -44.7897 9.33759 -0.676154 -45.3309 11.5454 -0.763025 -44.4701 11.6744 1.43165 -41.5341 9.21802 1.1283 -40.4237 8.25162 0.469047 -40.5731 8.51627 -0.821836 -40.1705 7.57867 -1.33691 -40.2678 6.79736 0.0353969 -40.3753 9.99642 -1.75321 -41.8572 8.98751 -1.54675 -40.2949 10.3876 -3.03152 -40.2602 5.36024 -0.435481 -40.8335 5.31562 1.07962 -40.5462 6.97282 -7.79766 -39.6113 6.72735 -8.71072 -40.6125 5.248 -8.54976 -40.9483 8.51171 -9.48851 -41.6198 7.93727 -10.0907 -42.0731 8.69795 -8.4118 -42.6955 7.53207 -10.8749 -42.7447 8.1235 -9.01401 -41.5673 3.7228 -8.38937 -41.9266 9.00872 -6.26858 -42.5117 8.9882 -7.47429 -42.1655 8.97695 -5.0653 -42.6549 8.77408 -4.07346 -43.5019 8.41633 -3.43312 -42.7268 8.26866 -2.71582 -44.5508 9.75387 -3.78903 -43.2305 9.53427 -1.64026 -38.8619 3.29942 -10.6246 -37.5046 3.52157 -11.6409 -38.1769 2.24893 -10.3003 -39.2196 4.52962 -10.2684 -39.5678 5.75317 -10.6996 -41.2121 5.62933 -10.749 -38.7032 0.684569 -9.91978 -42.2374 5.16226 -11.3663 -41.4596 0.219375 -7.39616 -40.8087 1.39943 -7.5248 -41.9551 2.09837 -7.80713 -39.6082 2.51504 -7.82326 -25.9201 12.9801 19.6953 -26.3764 13.9883 20.4324 -24.8086 14.0431 20.1084 -27.2183 12.3147 18.5329 -29.0886 12.9339 19.6376 -29.7551 10.5158 17.9278 -29.7437 12.032 16.8321 -30.4665 9.45995 17.786 -30.0174 8.69997 18.4162 -28.9497 11.8455 16.2534 -32.1437 9.1205 17.9146 -30.999 9.4709 16.4159 -32.7694 8.95427 19.4726 -26.6981 4.18402 13.377 -26.5282 3.0614 13.3159 -27.0205 5.40864 13.7825 -28.5637 4.70118 13.7262 -28.002 2.37976 14.0764 -27.7359 1.95385 12.6606 -28.464 1.74482 15.4342 -27.3842 1.13931 11.5356 -27.0418 1.32463 10.5346 -29.867 8.97265 15.5317 -30.985 8.95011 14.8121 -28.544 9.02661 15.0874 -30.9297 7.40596 13.9218 -32.0218 8.81495 13.6341 -31.4547 6.16323 13.8786 -30.0385 5.64928 13.8076 -33.1818 6.44836 5.64093 -34.1657 5.97136 4.88431 -32.7692 7.28939 6.36274 -32.3238 5.63971 6.87346 -35.9167 5.2854 5.33899 -33.9942 3.83862 6.64373 -37.0618 5.74448 4.77061 -36.7291 5.77558 3.29312 -39.8453 4.34212 3.20728 -38.2645 3.97563 3.4299 -40.9951 4.7517 2.68281 -41.1272 4.19899 0.935874 -37.177 5.43567 2.41866 -37.7461 3.30376 4.72685 -32.4351 5.65639 11.6009 -31.7119 7.91452 10.5756 -33.0528 8.27542 11.6422 -33.2833 8.66002 12.6546 -34.0961 7.65545 13.0847 -32.3042 10.1916 12.8373 -34.5808 6.38313 13.7439 -34.5126 3.25751 9.21527 -34.1299 3.16055 10.485 -33.5157 3.38196 7.50176 -33.5566 3.48537 11.717 -26.1812 23.4493 28.1304 -26.643 22.1757 28.6106 -26.2106 22.9575 29.6919 -25.924 23.6415 26.84 -26.2657 25.1048 27.4919 -26.9883 26.309 27.5944 -23.3747 23.5808 28.0567 -23.0464 23.7562 30.3723 -23.8751 24.3743 31.5568 -22.7775 23.5448 29.0873 -22.3473 23.2393 28.1101 -24.0617 25.429 28.6596 -23.8434 24.4778 32.7892 -25.7535 27.5149 33.0229 -25.367 28.4667 33.87 -26.3797 29.3528 33.1652 -26.1005 26.8979 32.1697 -25.1639 26.1769 31.8915 -23.7676 28.9783 34.8914 -25.9101 25.3404 31.206 -21.1845 25.8965 34.5966 -21.3944 24.5906 34.7341 -21.0248 26.9857 34.6405 -19.9938 27.5692 35.4798 -21.033 28.424 35.1067 -18.4516 27.2017 36.1825 -18.5891 28.4591 35.8581 -22.0258 29.3747 35.0246 -20.0956 29.5277 34.6271 -28.2378 23.8411 32.9266 -28.6446 26.086 33.3579 -30.7612 25.0178 35.3976 -30.6704 23.915 34.5043 -30.2767 23.29 32.7515 -26.9393 23.556 32.8158 -32.072 21.1608 30.7638 -32.652 21.993 32.2384 -30.8178 20.9063 30.3986 -29.9662 20.576 29.9915 -32.7359 23.0031 33.5272 -33.6423 22.6148 33.3613 -35.4046 23.1626 33.1754 -36.1494 23.1396 31.8699 -35.7766 22.2712 31.3758 -37.0859 24.5761 31.1022 -37.5894 24.3551 32.7332 -38.0126 25.096 31.7526 -36.8512 22.3561 33.1914 -37.6174 25.3158 34.3496 -37.7405 26.3952 32.4772 -41.5228 26.0061 35.6858 -40.911 27.0971 35.2346 -39.9838 26.3029 34.7351 -38.5854 26.2273 34.4566 -41.451 26.3725 33.5164 -37.4577 26.4054 34.1029 -36.7579 9.74889 22.0371 -36.9939 8.75108 22.883 -38.2482 10.0781 22.6919 -35.3631 9.42878 21.2175 -36.3606 10.8447 21.1496 -34.1296 8.04723 20.9977 -33.16 7.22933 20.2903 -33.6844 6.53284 19.5491 -32.0148 6.66424 19.5954 -34.2531 5.52312 18.8971 -34.4052 5.1161 20.2657 -30.2349 4.933 19.1679 -29.7742 5.91617 18.8457 -41.3749 11.0438 21.4727 -42.0698 10.41 22.4125 -43.4557 10.1572 21.6002 -41.4856 12.5175 21.7036 -42.7706 12.3707 21.0032 -39.943 8.39984 19.8493 -39.9726 9.99526 20.5071 -39.4394 7.99148 20.7667 -38.9102 7.53876 21.4843 -37.1853 7.68698 20.8082 -38.1201 6.80573 22.0481 -30.2166 16.1869 22.2857 -31.3506 16.292 22.9722 -30.2203 15.9357 24.167 -29.1988 15.6004 21.6078 -30.1028 15.3784 20.5749 -32.3096 17.1163 23.2048 -31.8382 18.0794 24.6 -30.7818 18.7138 26.0942 -33.9993 11.2412 19.7513 -33.0732 10.8983 20.6082 -32.24 11.8432 19.7606 -34.8785 12.2033 19.4868 -35.9053 11.4177 20.231 -31.0579 11.8818 20.5453 -30.8291 12.8551 20.5261 -29.6307 20.0441 26.5462 -29.7019 18.4821 26.2894 -30.4755 20.1563 28.7128 -31.8485 20.2259 27.6018 -29.4899 16.9394 26.4125 -28.9114 15.7511 27.2655 -31.5078 20.507 25.2563 -32.5168 19.9006 26.2547 -31.3449 21.8168 25.4178 -32.847 22.5887 25.0672 -34.4655 22.4363 25.1454 -34.3815 23.7968 23.4615 -5.88219 24.4919 37.8614 -4.8891 24.4416 37.9674 -7.13331 24.0364 37.9158 -5.37019 23.7494 37.4294 -7.90921 25.131 39.0222 -8.71286 23.6961 38.4004 -8.75947 24.7741 38.6353 -8.76534 25.6319 39.1492 -4.64223 22.739 37.6238 -3.58034 23.4249 36.997 -4.22786 21.0489 37.6379 -9.60223 22.844 37.3343 -5.45228 19.247 38.9467 -5.57604 20.1812 37.7315 -6.26724 18.0754 39.1732 -6.69411 17.0821 39.4684 -3.6757 20.3817 38.5535 -0.937957 24.7032 37.9806 -2.06743 24.8429 37.2929 -2.25495 23.6246 37.1627 0.13311 26.2407 37.8713 -2.06856 26.4909 36.9796 -2.40817 22.3867 36.9833 -2.22127 28.2524 37.3863 0.49816 30.6209 37.7397 1.33874 29.3886 38.4298 -2.29641 29.9112 37.1033 2.32026 28.9958 37.5972 -3.0588 29.2188 38.4647 -20.7214 31.5242 42.3515 -19.5114 31.0749 42.032 -20.7845 31.489 44.0523 -21.979 30.9644 42.644 -18.2379 29.8876 44.418 -18.6176 30.2214 45.9815 -17.6831 29.2799 42.8925 -15.3695 28.4701 40.9525 -16.1423 28.2688 42.0156 -14.4231 27.1284 40.7472 -17.1921 28.1368 42.2169 -17.0239 26.9787 43.1495 -16.1174 26.5227 42.55 -13.2331 27.1106 41.5288 -14.0202 26.5962 42.1753 -16.8457 26.1189 44.4782 -11.16 23.6244 42.1057 -12.3891 23.9327 42.5154 -11.0402 24.1233 41.2473 -10.2419 23.7758 41.7392 -12.6666 24.8638 43.6037 -13.0451 23.8062 44.3874 -13.337 26.3023 43.4701 -10.2903 25.2589 40.9353 -14.9416 26.1918 42.9151 -10.0759 27.3609 38.8799 -9.4678 26.2302 38.5057 -10.6451 26.8898 40.2502 -10.756 27.8628 40.4528 -11.6494 27.4174 38.9472 -10.5692 27.2162 41.1924 -19.7843 34.86 39.7374 -19.9292 35.827 38.1015 -18.8125 35.282 40.5416 -18.7257 36.8826 40.3703 -18.403 36.6031 41.2746 -18.9505 37.4339 41.1738 -18.9742 38.5728 40.6841 -19.8021 35.4914 37.0499 -20.5998 36.8761 37.6044 -17.877 37.8098 41.9961 -18.9621 40.3885 44.6671 -20.6822 40.117 44.0846 -20.8265 40.6364 45.118 -20.9508 39.4067 42.6939 -22.2876 39.4236 43.8997 -19.5834 39.2618 41.4811 -17.9008 38.9488 41.5063 -20.768 42.3615 46.5965 -19.651 43.0185 45.3309 -20.1928 41.8362 47.6742 -21.3938 41.222 46.4242 -19.5935 43.1715 44.0751 -18.4188 43.8767 44.9171 -20.4083 39.3452 48.6251 -21.3218 38.1625 51.6276 -20.6683 39.2793 51.3215 -21.7434 40.0106 52.0365 -19.7279 39.1281 50.0895 -18.1925 40.0417 50.0125 -22.6645 40.7655 51.8745 -16.6274 28.1473 38.6676 -15.9352 27.8948 37.5608 -16.1193 29.2739 37.4001 -15.6599 26.3536 37.5312 -17.2437 29.5762 36.4351 -14.5851 25.8286 38.6791 -13.1273 26.6797 38.8098 -18.6494 29.497 35.394 -18.9291 30.6468 34.2383 -18.2205 29.9456 34.1598 -18.0328 30.8816 33.862 -19.204 31.6995 35.9561 -18.8093 31.126 36.9843 -21.7798 30.1321 37.0043 -22.2635 31.3492 35.981 -21.9496 33.4695 41.5577 -23.5582 32.7965 41.6585 -21.3345 32.6336 40.7265 -21.7646 32.561 39.5217 -24.
[...]
POINT_DATA 1686
FIELD FieldData 1
normals 3 1686 double
-0.382463 0.395337 -0.835123 0.799758 -0.244034 0.548483 -0.196297 -0.488169 -0.850387 0.813292 0.54404 0.206342 -0.308251 0.858726 0.409354 -0.257864 0.922898 -0.285948 -0.376159 0.916574 -0.135635 -0.471639 -0.729602 0.495214 0.0322879 -0.256206 -0.966083 0.030036 -0.9264 -0.37534 0.566123 0.72503 -0.39222 0.207792 -0.716474 -0.665949 -0.428103 -0.823211 0.372895 0.540311 -0.658923 -0.52334 0.635925 0.480859 -0.603634 0.235692 0.963591 0.126262 -0.385966 0.693052 -0.608859 0.508865 -0.230857 -0.829314 -0.798827 0.594999 -0.0886154 -0.937137 0.205804 -0.281814 0.237574 0.537492 -0.809111 -0.151778 0.425426 0.892175 0.187688 -0.666087 -0.721874 0.660709 -0.732543 0.163839 0.518801 0.677691 0.521134 -0.815181 -0.19685 0.544729 0.469266 -0.199145 0.860308 0.709359 -0.666663 0.228845 -0.193575 0.39381 0.898578 0.509051 0.285572 -0.811982 -0.781828 -0.601132 0.165485 -0.412489 -0.691071 -0.593527 0.488781 -0.430596 0.758736 0.228972 -0.862194 -0.451877 0.824277 0.109547 0.555488 -0.031969 -0.978306 0.204685 0.40691 -0.591638 -0.69598 0.675767 0.357715 0.644499 -0.0945918 0.716228 0.691426 -0.57892 -0.125682 0.80564 0.59416 0.65521 -0.466555 0.643298 -0.267983 0.717184 -0.322615 0.940921 -0.102898 -0.592979 -0.402859 -0.697195 -0.685143 -0.500253 0.529458 0.809672 0.560466 0.174093 -0.575108 0.552976 0.602883 -0.756486 -0.416369 -0.504347 -0.412313 -0.91104 -0.00221118 0.641126 -0.30389 -0.704705 0.876388 -0.270343 0.398571 -0.642079 -0.047134 0.765188 -0.161727 -0.813654 0.558401 -0.188314 0.966379 0.17507 0.347908 -0.880149 -0.322951 -0.269632 -0.268231 -0.924852 0.519158 -0.128028 0.845035 0.905036 0.156904 -0.395337 -0.316547 0.905208 -0.283543 0.696883 0.669159 0.258032 0.919656 0.349405 0.179301 0.851383 -0.467862 0.237177 0.754575 0.650663 0.0851787 0.867314 -0.0483853 -0.495405 -0.121464 -0.531127 -0.838541 -0.512907 0.858177 0.0214412 0.39308 0.0360726 0.918796 0.576773 -0.519579 -0.630374 -0.329807 0.00991732 0.943996 -0.440387 -0.875374 0.199447 -0.072483 0.162493 0.984044 -0.0186733 -0.386835 -0.92196 -0.134309 0.597686 -0.7904 0.866278 0.419526 0.271221 -0.436957 -0.52055 0.733551 0.48863 -0.162768 0.857174 0.925586 0.357782 0.123621 -0.160227 -0.841091 0.516617 -0.922853 -0.174231 -0.343492 0.809796 0.552755 0.196702 0.781811 0.518272 0.346649 0.0163136 -0.940744 -0.338725 -0.724725 -0.161001 0.669964 0.00617729 -0.997537 -0.0698721 -0.565594 0.824212 -0.0279042 -0.566919 -0.0394469 -0.822828 0.0230337 0.519943 -0.85389 -0.516338 0.853296 -0.0726646 0.88733 -0.433577 0.157025 -0.223136 0.532821 0.81628 -0.372549 0.79747 -0.474604 0.0299939 -0.140131 -0.989679 -0.067305 -0.921447 0.382629 0.570357 0.68268 -0.456773 -0.911544 -0.326235 -0.250314 -0.489977 -0.291549 -0.821536 0.0748983 -0.515671 -0.853507 -0.498364 -0.560288 0.661597 -0.298867 0.850103 0.433593 0.636033 0.604626 -0.479468 -0.365251 -0.874723 -0.318513 -0.321808 0.643434 0.694574 -0.993333 0.0689894 0.0923571 -0.803083 -0.457197 0.382138 -0.0823735 -0.474186 -0.876563 -0.131554 0.117247 0.984351 -0.589527 -0.650471 0.478901 0.220512 -0.726927 0.650347 -0.364535 -0.74745 -0.555368 -0.45937 0.695156 0.552935 -0.0300261 -0.898035 0.438899 -0.817013 0.540289 0.201439 -0.0418938 0.392615 0.918748 -0.231857 0.797252 -0.557343 -0.461831 0.872997 0.156806 -0.851421 0.360943 0.380528 0.505863 0.583087 -0.635698 -0.166412 -0.689554 0.704856 0.49377 0.869252 -0.0243351 -0.841999 0.354296 -0.406833 -0.802268 -0.478129 0.357432 -0.359901 -0.874803 -0.324333 -0.223033 0.0110544 -0.974748 -0.293762 0.905029 -0.307615 0.944631 0.275024 0.178977 -0.20177 0.973965 -0.103348 0.255872 0.840583 -0.47744 -0.390675 -0.478816 -0.786199 -0.846978 0.52936 -0.0490569 0.720782 0.584214 -0.373052 -0.907572 -0.186567 -0.376173 -0.693533 0.0369021 -0.719479 0.176455 -0.936597 0.302736 0.187923 0.579567 -0.792961 -0.887814 -0.11924 -0.444486 -0.438755 -0.879218 0.185658 -0.606076 0.766003 -0.214269 -0.789398 -0.220215 0.573024 0.355269 0.13019 -0.925654 0.163708 0.053992 0.98503 -0.885497 0.432568 0.169645 -0.715583 -0.690046 0.108526 0.56307 0.792059 0.235785 -0.980104 0.084592 0.179555 -0.758239 0.00840603 0.651923 -0.492129 -0.417504 -0.763871 0.296305 -0.643349 0.705908 0.843794 -0.397037 -0.361073 -0.501355 0.582359 -0.639922 0.776748 -0.628447 0.0414313 -0.341177 -0.650985 -0.678098 0.546273 0.682415 -0.485691 0.396476 -0.893165 -0.212283 -0.695663 0.515823 -0.499981 -0.921526 -0.349568 0.169091 0.494682 -0.863513 0.0981586 0.198598 -0.102486 0.974708 -0.785255 -0.579492 0.218089 0.214059 0.943516 -0.252896 0.659434 -0.706166 0.257828 -0.965757 -0.10647 0.236596 0.960371 -0.278724 4.2402e-05 -0.179302 0.565554 -0.804984 0.511955 -0.534454 -0.672504 -0.813148 0.405949 0.417128 0.767574 0.0394599 0.639744 -0.336732 0.00363079 -0.941593 0.204683 -0.556346 -0.805347 0.959878 -0.194545 0.201955 -0.249164 -0.711332 0.657209 0.269579 -0.705951 0.654951 -0.544524 0.647052 0.533683 -0.796343 -0.286152 0.532875 0.56582 0.670751 0.479522 -0.24704 -0.333821 0.909689 0.413299 0.860871 -0.296792 -0.237643 -0.938491 -0.250522 0.514994 -0.0534887 -0.855523 0.897682 -0.150448 0.414165 0.481873 0.177938 -0.857984 -0.324354 0.475267 0.817873 -0.329594 0.686035 -0.648632 -0.791447 -0.587584 -0.168396 -0.359012 0.194252 0.912895 0.586725 -0.493892 -0.641735 0.245049 0.969457 0.0101597 -0.967666 0.234746 0.0922863 0.755758 0.595738 0.271892 0.110389 -0.843175 -0.526185 -0.718294 -0.225009 0.65835 0.15856 0.63179 -0.75875 0.271621 -0.937288 -0.218434 -0.326432 -0.461237 -0.825047 0.749996 0.328536 0.574082 0.422427 -0.86668 -0.26537 0.808919 0.0851271 0.581724 -0.203862 0.971239 -0.123023 -0.769508 0.249719 -0.587791 0.167087 -0.471303 -0.866 0.790404 0.426536 0.439691 -0.913261 -0.36522 0.180469 0.126536 0.571301 -0.810928 -0.0833238 -0.734555 -0.673414 0.0332026 0.517884 0.854806 0.997721 0.065661 -0.0155119 -0.0414389 0.920483 -0.38858 0.544488 -0.433132 0.718282 0.407 0.824173 0.393815 -0.951397 0.0301822 0.306483 0.978869 0.183133 -0.0909843 0.516679 -0.49706 -0.697118 0.850399 -0.168686 -0.498363 0.0984435 -0.990074 0.100315 -0.00763557 -0.112725 -0.993597 0.401356 -0.512298 -0.759252 0.781903 0.211982 0.586252 0.406659 -0.769942 -0.49175 -0.17338 0.0622516 0.982886 0.847544 0.515418 0.126541 0.00400712 -0.845711 -0.533626 0.0895548 0.947829 0.305941 -0.816906 0.559533 0.139953 -0.945353 -0.0117099 -0.32584 -0.200496 0.0113347 0.979629 0.172309 -0.857069 0.485532 -0.615972 -0.430485 0.659743 0.112436 0.209542 0.971314 -0.310779 0.950437 -0.00929589 -0.501264 -0.794875 0.341919 -0.140432 0.751103 0.645076 0.582945 0.348721 0.733873 -0.968027 -0.212007 0.134076 -0.356228 0.878965 -0.317054 0.570962 0.0847752 -0.816588 0.82749 -0.160387 0.538087 -0.400292 -0.812891 0.423054 0.300163 0.338514 -0.891802 0.852924 0.381274 -0.356583 0.616873 -0.616532 0.48924 -0.637379 0.710498 0.298229 0.541898 -0.701385 -0.46304 -0.455618 0.714492 -0.530956 0.691528 -0.680165 0.243237 0.278083 -0.137729 -0.950632 -0.802448 -0.558764 0.20943 0.867158 -0.427361 0.255735 0.233738 -0.45096 -0.861395 0.081664 -0.857974 0.50716 -0.104405 0.40327 -0.909106 0.565059 0.579907 0.58687 0.126079 -0.0651152 0.989881 -0.820996 -0.568737 -0.0500388 -0.564832 0.315978 -0.762314 -0.96994 -0.0301647 0.241468 -0.315018 -0.116636 -0.941892 0.971955 0.114776 0.205255 0.100413 -0.0995109 0.989957 -0.468293 -0.523137 0.71206 0.997502 0.0704127 0.00562935 0.727388 0.0778134 -0.6818 -0.207401 -0.803446 0.558085 0.176912 -0.134247 -0.975028 -0.957028 -0.0291761 -0.288526 0.173242 -0.385465 0.906314 0.840897 -0.45232 0.29715 -0.0631166 -0.674255 -0.735797 -0.00202717 0.853451 0.521169 0.473475 0.109655 0.873955 0.582946 0.524746 0.620335 -0.995142 0.0350319 0.0920063 -0.0690104 -0.307861 0.948925 0.764163 0.637019 0.1013 0.115963 0.927067 -0.356509 -0.910876 0.141445 0.387684 0.417959 -0.598467 0.683482 0.646699 0.374831 0.66429 0.568126 0.805526 -0.168403 0.496925 -0.756476 -0.425218 0.513265 -0.425969 0.745057 -0.859697 -0.356331 -0.365992 -0.284954 -0.786223 0.54832 0.863435 -0.402002 0.304754 0.817713 0.575364 -0.0173489 -0.191303 -0.0310332 0.98104 -0.654734 0.734392 0.178864 -0.847441 0.0375699 -0.529559 -0.771033 -0.190008 0.607787 -0.452324 -0.732827 -0.508299 -0.481084 -0.692168 -0.538016 0.512004 -0.742466 -0.431967 -0.770034 0.236721 0.592461 0.993088 -0.0502993 0.106048 -0.00586888 0.857837 0.513889 -0.809514 -0.577095 -0.107926 -0.856124 0.50092 0.127008 -0.850255 -0.356917 -0.386881 -0.26513 -0.960158 0.0883324 0.796757 -0.274204 -0.538508 0.679499 -0.729908 -0.0742669 -0.0798538 -0.274949 -0.958137 0.162905 -0.96263 0.216346 0.0391452 -0.0284921 -0.998827 -0.977862 -0.209006 0.0101224 0.550995 -0.784272 0.28517 -0.127335 0.0626628 0.989878 0.788353 0.604637 0.113638 -0.341117 0.744413 -0.574011 -0.528638 -0.4739 -0.704245 0.282714 0.932936 -0.222943 0.339986 0.903582 0.26067 0.375413 -0.76397 0.5248 -0.492699 0.857858 0.146035 -0.405352 0.345541 -0.84634 0.435227 -0.886676 -0.156153 -0.41756 -0.801004 0.428995 0.54629 0.49384 -0.676527 -0.344824 0.108534 0.932372 -0.549286 -0.101532 0.829443 0.660727 -0.550802 0.509958 0.486158 0.0664105 0.871344 -0.708357 -0.458204 -0.536917 0.743669 -0.169167 -0.646791 0.363894 0.164593 0.916782 -0.188949 -0.438533 -0.878628 0.402973 -0.635224 -0.658865 -0.369841 -0.836563 0.404204 0.543393 -0.706447 0.453493 -0.679973 0.70459 -0.202952 -0.511786 -0.453474 0.729682 0.394742 -0.909525 0.130165 0.646591 0.688635 0.328178 -0.140429 0.174205 0.974645 0.689997 -0.406354 0.598983 0.798299 -0.347463 0.491924 -0.430776 -0.0392342 0.901606 0.918038 0.151385 -0.366455 0.119739 0.498847 -0.858379 0.153256 0.970396 0.186666 -0.225248 -0.0872244 0.970389 -0.823634 0.468092 -0.320182 -0.168053 0.984273 0.0544518 -0.781036 -0.578621 -0.234904 -0.755906 0.175554 0.630703 -0.147794 -0.955155 0.256587 0.186751 -0.646611 0.739607 0.0758488 0.326351 0.9422 -0.817624 -0.119023 -0.563316 -0.110902 0.972963 0.202595 0.337627 -0.34794 0.874612 0.192722 0.619084 -0.76131 0.634238 0.769923 -0.0704268 -0.547469 0.830728 -0.100843 -0.224804 0.551266 0.803473 0.322664 -0.279461 0.904317 0.29893 0.859517 0.414574 -0.0655606 -0.954704 -0.290244 -0.863286 0.430001 0.264266 0.750819 0.655391 -0.0820563 0.992106 -0.123452 0.0220222 -0.727996 -0.394897 -0.560426 -0.872278 0.124481 0.472901 0.459342 -0.315491 -0.830344 -0.877438 -0.298509 0.375493 0.908095 0.170595 -0.382441 0.774555 -0.483586 0.407687 -0.32087 -0.678373 0.660948 0.796177 -0.0213105 -0.604689 0.896069 0.153136 0.416665 -0.304925 -0.461091 -0.833316 -0.7387 0.174329 -0.6511 0.435953 0.879482 0.190933 0.674957 -0.529118 0.514264 0.292317 -0.956016 0.0241795 0.945863 0.160766 -0.281952 -0.129245 0.892034 0.433095 -0.00547965 -0.311989 -0.95007 -0.448 0.44649 -0.774559 -0.791867 -0.137099 -0.595105 0.69401 0.531331 -0.485837 -0.00184554 -0.783857 -0.620939 -0.185994 0.595288 -0.78169 0.27719 -0.757339 0.591273 -0.938391 -0.292987 -0.183251 0.797601 0.232393 0.556621 0.660201 0.61868 -0.425876 -0.467291 0.213781 -0.857868 0.187641 0.935996 -0.297829 0.896251 0.234774 -0.376318 0.70861 -0.701221 -0.0784882 0.849427 0.148304 0.506438 -0.454659 -0.721798 0.521818 -0.740392 0.617647 -0.265202 0.25668 0.59947 -0.758124 0.947588 -0.0458512 -0.316187 -0.660944 -0.718847 -0.215433 -0.332477 -0.79003 -0.515084 -0.0976311 0.717482 -0.689701 -0.437646 -0.875327 0.205593 -0.99173 -0.119058 0.0479233 -0.754293 0.656063 -0.0249471 -0.47044 -0.240656 -0.848982 -0.0593168 -0.902894 0.42575 -0.424122 -0.214161 0.879918 0.305574 -0.94773 -0.0918231 0.615408 0.160226 -0.771752 -0.0476973 -0.587427 -0.807871 -0.663106 -0.747654 -0.0361205 -0.618634 0.785039 0.0317187 -0.649261 -0.40491 0.643822 -0.00154048 0.97672 0.214514 0.535967 0.344344 0.770822 0.29338 -0.624641 0.723707 -0.242586 -0.968985 -0.0471149 0.192582 -0.978925 -0.0679528 0.933279 0.342309 -0.108693 0.970921 -0.178629 -0.159384 0.283036 0.956242 -0.0741125 0.373919 0.126878 0.918742 0.559924 0.00614313 -0.828521 0.81585 -0.0302417 0.577473 -0.152141 0.0745218 -0.985545 -0.346594 0.328063 0.878776 0.602594 0.794005 0.0802299 -0.358147 -0.500381 0.788257 -0.888919 0.456983 0.0314628 0.983676 -0.133809 -0.120323 0.018816 0.515525 0.856668 0.197421 0.980262 -0.0105804 -0.468407 -0.808066 -0.357246 0.178605 0.464738 -0.867248 -0.230032 -0.151621 0.961299 -0.035031 -0.145683 -0.988711 -0.91377 -0.265949 -0.307075 0.130818 0.228245 -0.964775 -0.375493 0.924146 -0.070418 -0.149346 0.542718 0.826531 0.928378 -0.35978 -0.093128 0.166188 -0.388154 0.906487 -0.136114 0.644337 -0.752531 -0.822941 -0.429499 -0.371885 0.947065 0.133685 -0.291883 -0.0358738 0.00526814 0.999342 -0.241221 0.857131 0.455125 0.0818786 -0.159082 0.983864 0.0892426 -0.720985 0.687181 0.706283 -0.0196329 -0.707657 -0.0909568 0.632619 -0.769104 -0.567416 -0.592904 -0.571405 0.845325 0.176851 0.504133 0.512661 -0.209258 -0.832701 -0.533941 -0.214657 0.81782 -0.0230342 -0.092465 0.995449 0.469901 -0.183996 -0.86333 0.316439 -0.943102 -0.102105 0.916067 0.193591 -0.351205 0.48481 0.646464 0.589104 0.81474 -0.195194 -0.545983 0.857313 0.477284 0.192908 0.0425732 0.672479 0.738891 0.750277 -0.534129 -0.389602 -0.965446 -0.252994 0.062521 0.0472156 -0.997389 0.054636 -0.00246139 0.226774 -0.973944 -0.930437 0.315029 -0.1872 -0.70519 -0.593849 -0.387363 0.285206 0.333956 0.898405 -0.0107729 -0.99212 0.124824 0.861737 0.507234 -0.0111282 -0.421495 0.866688 -0.266823 0.866915 0.491912 0.0805018 0.340071 -0.765102 -0.546782 0.662196 0.715516 -0.222562 0.767776 -0.0628185 0.637632 0.825898 0.0664902 0.559885 -0.318555 -0.867572 0.381891 -0.241253 -0.335811 -0.91051 -0.611309 0.466598 0.639209 0.36434 -0.246326 0.898098 0.473932 -0.579415 0.663074 -0.686307 0.706935 0.170956 0.432412 0.46073 0.775079 -0.36964 -0.597912 0.711244 -0.851823 0.230954 -0.470167 -0.684915 0.342029 0.643357 0.729032 0.346097 -0.590533 -0.849426 0.517848 0.10153 -0.690669 0.464393 -0.554361 0.720014 0.689732 -0.0764823 -0.830967 -0.304 -0.465916 0.322692 0.586351 -0.743009 -0.159719 0.805933 -0.570054 -0.154505 -0.799978 -0.579796 -0.445018 -0.346925 0.825592 -0.142419 -0.955141 -0.25966 0.38489 -0.348539 -0.854623 0.450916 -0.420605 0.787253 0.527309 0.606601 -0.594963 0.750504 0.277967 -0.599565 0.514889 0.757496 0.40136 0.835483 -0.540267 0.1004 -0.24116 0.00587311 -0.970468 -0.534436 -0.700409 -0.473081 0.989741 -0.13006 -0.0591369 -0.675028 0.275017 0.684619 -0.961139 0.0997518 -0.257413 -0.286111 -0.175265 -0.942031 -0.0640521 -0.997881 -0.0114294 -0.619149 -0.656815 0.430406 0.630901 0.228143 0.741563 0.98705 -0.157705 -0.0293495 -0.35738 0.176591 0.917112 -0.0217971 0.285081 -0.958255 -0.18232 0.930475 -0.317768 -0.415158 0.14955 -0.897373 -0.232837 -0.780926 -0.579605 -0.866841 -0.429711 0.252853 -0.985976 -0.0563648 -0.15708 -0.989706 -0.140408 0.0277034 -0.163344 0.137966 -0.976875 -0.206094 -0.327939 0.921944 0.700303 -0.713832 -0.00444821 0.15593 0.958638 -0.238114 0.99692 -0.041355 -0.0666315 -0.312284 0.839198 0.445225 -0.207604 0.704653 0.678502 0.895239 0.445244 -0.0174646 -0.993417 0.11455 0.0005745 -0.193046 -0.39018 0.900274 -0.0337363 0.566458 -0.8234 -0.871699 -0.381241 -0.307888 0.64664 0.527376 -0.551118 -0.934865 0.0584041 0.350167 -0.75208 0.593549 -0.286488 -0.380704 0.153041 0.911945 0.369674 -0.547525 -0.750705 0.646287 -0.7423 0.176931 0.965923 -0.241933 -0.0919874 -0.116027 -0.894518 -0.431712 0.142512 0.0169077 -0.989649 0.346895 0.0478791 -0.936681 0.183628 0.0660609 0.980774 -0.953215 0.0808688 0.291276 0.172618 0.818171 0.548452 0.0569808 0.858704 -0.509294 0.913469 0.378518 0.149327 -0.511995 0.671504 0.535671 0.271703 -0.11009 -0.956064 -0.162837 0.416572 -0.8944 -0.415053 0.508442 0.754465 -0.812765 0.537337 -0.225126 0.933131 0.271243 -0.235997 -0.205373 -0.784902 -0.584595 0.789344 -0.0307261 -0.613182 0.882126 -0.329431 0.336643 -0.761329 0.573388 -0.302662 -0.152651 -0.970339 -0.187455 0.494011 -0.634394 0.594556 0.0927822 -0.298705 0.949825 0.0391996 -0.998407 0.0405893 0.510204 -0.419743 0.750671 -0.92352 -0.348672 0.159806 0.56298 0.106877 -0.819531 -0.159298 0.852822 0.497312 0.157913 -0.480899 -0.862438 0.279579 -0.881852 0.379702 -0.933249 0.138533 -0.331443 0.139505 0.840426 -0.523662 0.899482 0.364447 -0.241061 -0.672971 -0.700074 -0.238759 -0.920156 -0.382307 -0.0845846 -0.0771025 -0.550765 -0.831091 -0.987922 -0.154258 -0.0146621 -0.859896 -0.42144 0.28804 -0.77013 -0.310506 0.557213 -0.537011 0.840936 -0.066682 0.32331 0.422401 -0.846787 0.501949 -0.251226 -0.827607 0.865803 -0.290389 0.407504 0.302137 -0.917639 -0.25817 -0.665169 -0.107708 0.738884 -0.638449 0.753524 0.156793 0.507421 -0.393171 0.766773 -0.154306 0.809843 0.565989 -0.996374 0.0831985 -0.017827 0.996779 -0.0552193 0.0581652 -0.170535 0.194992 0.965865 -0.971972 0.22791 0.0576886 -0.223049 0.12597 0.966634 0.511175 0.336364 0.790923 -0.434834 -0.880999 0.18644 0.635783 -0.69212 -0.341686 -0.164439 0.403318 0.900163 -0.56869 -0.79161 -0.223483 0.127171 -0.990993 -0.0419489 -0.640381 0.179459 -0.746798 0.952622 0.181332 -0.244193 0.84461 -0.0340453 0.534298 -0.168836 0.826768 0.536609 -0.266255 -0.846871 -0.460346 0.412333 -0.908225 -0.0714831 -0.124717 -0.494204 0.860354 0.42856 0.886901 -0.172462 -0.0677994 -0.379753 -0.9226 0.538241 0.511638 0.669718 -0.725627 0.679387 -0.109085 0.810764 0.538635 -0.229202 0.64763 -0.667422 0.36759 -0.842568 -0.450339 0.295421 -0.51515 0.707118 -0.484361 -0.357985 0.282276 0.890038 0.565392 0.820622 0.0831283 0.750228 -0.56297 -0.346732 0.661604 0.232309 0.71296 -0.585253 -0.255371 -0.769587 0.463833 -0.710218 0.529575 -0.205429 0.657464 0.724941 -0.81333 0.182028 0.552594 0.339665 0.662002 0.668118 0.229387 -0.471503 0.851508 -0.914314 -0.36182 0.181981 0.993861 -0.0209496 0.108634 0.82868 -0.353933 0.433614 -0.0704374 -0.830784 0.55212 -0.551605 0.639976 -0.534941 0.500033 -0.665913 0.553649 -0.848177 -0.497177 -0.182787 0.824861 0.50556 -0.25301 -0.589902 0.340133 0.732342 0.33228 -0.919842 0.208521 -0.129652 0.048721 -0.990362 -0.739667 0.659501 -0.133981 0.433956 -0.512365 0.741057 -0.296409 0.804171 0.515218 0.374324 -0.543454 -0.751359 0.683684 -0.384034 0.620559 -0.799158 -0.483564 0.357088 0.572005 -0.618759 0.538467 0.684977 -0.509243 -0.521036 0.643544 0.705652 -0.296489 0.712776 -0.648091 0.268195 0.536097 0.481663 -0.693254 -0.879446 -0.353233 0.319062 -0.664155 0.576951 -0.475422 0.512534 0.00970168 0.858612 0.209165 -0.859063 0.467184 -0.303368 -0.868764 -0.391428 -0.606015 -0.461562 -0.647847 0.0906561 0.988393 -0.121904 -0.503563 0.156933 -0.849586 0.463871 -0.743336 0.481949 0.967236 -0.184539 0.174356 0.680469 -0.119194 -0.723017 -0.70767 0.627915 0.323923 0.431307 -0.0265066 0.901816 0.97721 -0.196107 0.0812625 -0.37586 0.815798 -0.439549 -0.877236 -0.415495 0.24046 0.879467 0.297123 0.371827 -0.633466 0.117018 -0.764871 0.298868 -0.187319 -0.935729 0.347565 -0.512372 0.785286 -0.137015 -0.467629 0.873241 -0.836615 -0.547701 -0.00989742 0.588681 0.728756 0.349814 0.743913 0.459422 -0.485309 -0.0717822 0.511112 0.856511 -0.621997 0.766624 0.159398 0.111848 -0.935183 -0.33604 -0.635728 0.0371218 -0.77102 -0.899209 -0.263558 -0.349228 0.405567 0.699566 0.588322 -0.812785 0.575664 -0.0893952 -0.791147 0.0339429 0.610683 0.411198 0.459374 -0.787332 -0.580009 0.729584 -0.362348 -0.888431 -0.382913 0.253117 0.600439 0.599453 0.529273 0.845098 0.471176 0.252591 -0.556639 0.827891 -0.0689109 -0.0944811 0.982295 0.16177 -0.611005 0.544818 -0.574323 0.34876 0.930248 0.114041 -0.583716 0.766194 0.268744 0.896526 0.0725382 -0.437013 -0.784442 -0.410799 -0.464645 -0.231173 0.720155 0.654169 0.481071 0.52513 0.702004 -0.461489 0.795842 -0.391999 -0.274523 -0.244568 -0.929959 -0.269023 -0.948456 -0.167506 0.177724 0.721422 -0.669301 -0.581602 0.411143 -0.701927 -0.828146 -0.546262 0.125585 0.661144 0.0707446 -0.746916 -0.809277 0.5374 0.237219 -0.453454 -0.140934 0.880067 0.355822 -0.678333 0.642849 0.561884 -0.506637 0.653916 0.239632 0.929975 0.27879 -0.696702 0.193603 -0.69