# vtk DataFile Version 4.0
Generated by libgran
ASCII
DATASET POLYDATA
POINTS 1686 FLOAT
-33.1554 1.7028 6.70917 -31.8476 0.833147 7.8291 -33.952 1.84993 5.11911 -32.7511 2.69267 6.14336 -34.3028 -1.22761 8.10908 -34.4942 2.44925 4.10255 -31.4483 -0.255879 12.5384 -31.2896 -1.94716 13.0194 -32.0296 0.43119 11.5595 -32.143 -0.655169 10.1422 -31.6259 1.00216 10.1689 -31.0626 1.11996 8.99095 -30.8325 -3.57882 15.5303 -30.0256 -3.22976 14.5328 -30.0561 -2.08381 14.5564 -29.3969 -0.518363 14.1218 -28.7447 -0.260141 14.8345 -28.767 0.33215 13.4396 -32.5033 -4.24641 13.5853 -34.4544 -4.93786 15.0666 -33.411 -4.38783 14.4529 -33.5494 -4.75329 16.1575 -35.2771 -5.4001 14.1229 -32.861 -5.10174 17.0919 -33.1361 -3.77939 17.6507 -33.4297 -3.36768 18.7459 -32.1389 -3.30818 19.0281 -31.714 -4.80334 21.7108 -32.8727 -3.99423 22.3362 -32.0936 -3.9225 20.6571 -31.5084 -6.01498 22.2184 -32.4004 -7.56837 21.9524 -32.6368 -3.95204 24.0029 -31.319 -4.31236 19.3447 -31.7376 -8.23583 19.9823 -32.3666 -9.50374 19.7915 -30.4328 -8.47132 19.8819 -29.3254 -8.46619 19.825 -28.994 -7.13418 21.0048 -29.7791 -6.53721 22.4438 -28.8121 -5.66963 21.0594 -31.5139 -10.4803 20.8385 -23.1527 -12.4521 23.4233 -24.084 -12.0516 22.5629 -25.3394 -13.0003 22.5287 -22.767 -11.5914 25.176 -24.1499 -11.574 25.6106 -26.7573 -13.9401 22.6885 -28.6235 -11.6907 19.9192 -27.6118 -11.1854 19.0868 -28.1301 -12.7776 20.5052 -29.65 -12.5263 20.8467 -27.3745 -13.6992 21.5921 -30.5479 -11.4914 21.5825 -26.6364 -12.5006 18.2179 -26.5692 -13.8257 17.1588 -25.678 -15.9337 17.9695 -25.3396 -15.8712 16.6849 -26.5437 -15.0877 16.7148 -24.3925 -15.257 18.9065 -23.5237 -15.4325 16.3073 -22.8362 -15.0302 19.3641 -22.8043 -16.0842 19.7783 -22.7908 -14.0683 12.4492 -23.8153 -14.5465 12.2249 -24.0996 -12.9828 12.7698 -21.5249 -14.0727 12.8558 -21.4098 -14.9583 11.4612 -21.419 -13.6535 14.6694 -22.1626 -14.251 15.9884 -36.533 15.9501 3.99517 -36.9397 15.4957 2.10688 -36.9452 14.513 1.92205 -35.4387 16.4003 5.06486 -34.815 16.2138 5.94823 -33.8557 16.4873 5.87829 -34.171 15.9683 6.67278 -40.1527 15.0598 1.79566 -41.007 15.8114 1.1091 -39.1423 16.369 1.29438 -39.4016 14.6604 2.51125 -40.4255 13.2949 1.99029 -41.1839 12.2678 2.43235 -41.8838 11.1752 3.16387 -46.178 11.8361 2.95528 -46.465 10.9092 2.29489 -46.8771 13.1574 2.15272 -45.4467 13.3587 4.024 -42.8328 10.6802 3.1496 -41.9726 9.62978 2.27873 -42.4304 9.88457 1.06041 -42.1999 8.92676 0.480805 -41.9776 8.16575 1.84996 -42.4192 11.3521 0.0890335 -43.8366 10.3889 0.654435 -42.6292 11.7269 -1.17942 -42.1304 6.72361 1.42103 -42.3156 6.71766 3.03094 -43.9697 8.23069 -5.65792 -43.2416 7.94516 -6.73322 -44.2397 6.50332 -6.35676 -44.645 9.76851 -7.25958 -45.4419 9.21405 -7.70802 -45.5273 10.0059 -5.98505 -46.6649 8.84211 -8.25774 -46.3243 9.45145 -6.4335 -45.1949 5.01457 -5.98954 -44.9489 10.3301 -3.91817 -45.7613 10.3205 -4.98418 -44.9405 10.3203 -2.69107 -45.2051 10.1518 -1.61127 -45.8903 9.8366 -0.782584 -44.9743 9.67616 -0.26058 -46.9526 11.2033 -0.92181 -45.1783 10.9789 0.867975 -43.0212 4.47157 -8.72467 -41.9396 4.61043 -10.0419 -42.2831 3.42951 -8.50696 -43.2477 5.71732 -8.31851 -43.6313 6.95014 -8.68895 -45.2543 6.88758 -8.40034 -42.6946 1.89261 -7.92587 -46.3975 6.45154 -8.79201 -44.9666 1.53983 -4.91522 -44.3293 2.70555 -5.17518 -45.497 3.4155 -5.29681 -43.1767 3.79637 -5.68178 -25.2517 13.4202 19.4503 -25.7638 14.2848 20.321 -24.3304 14.6885 19.7309 -26.5707 12.5045 18.5011 -28.2931 12.6715 19.9911 -28.7728 10.1937 18.1114 -29.2539 11.811 17.3037 -29.3122 9.042 17.958 -28.6053 8.31732 18.3471 -28.5785 11.8668 16.5684 -30.8367 8.38575 18.3938 -30.1442 9.08348 16.7468 -31.0477 7.96058 20.0129 -26.4031 4.21472 12.979 -26.2212 3.10822 12.7907 -26.724 5.3596 13.5743 -28.2661 4.66358 13.4238 -27.6702 2.33404 13.5093 -27.4235 2.04558 12.0558 -28.0681 1.61967 14.8478 -27.088 1.29882 10.88 -26.7501 1.52286 9.88543 -29.2346 8.82096 15.5572 -30.4916 8.77111 15.1266 -28.0938 9.0519 14.7853 -30.5877 7.31372 14.1033 -31.7149 8.72417 14.1353 -31.1272 6.08098 13.9975 -29.7384 5.58253 13.6853 -33.6392 6.88466 5.75438 -34.8044 6.501 5.24145 -32.9908 7.70028 6.31388 -32.6544 6.03562 6.85825 -36.4884 6.07627 6.09406 -34.5417 4.36497 6.97517 -37.6484 6.70956 5.78033 -37.6497 6.71187 4.26554 -40.8864 5.68503 4.88217 -39.35 5.13127 4.75865 -42.0954 6.17755 4.63535 -42.6724 5.6111 2.98582 -38.3301 6.44776 3.52521 -38.6549 4.38219 5.92397 -32.4149 5.77729 11.8298 -31.8662 8.15771 10.9848 -33.0272 8.36928 12.2782 -33.1108 8.64058 13.3484 -33.8441 7.57775 13.7816 -32.136 10.1719 13.5552 -34.2104 6.23064 14.3641 -34.7624 3.58878 9.53783 -34.2231 3.37735 10.7346 -33.9884 3.80806 7.72177 -33.4848 3.56472 11.9059 -25.6633 23.2941 28.589 -26.0371 22.0066 29.1073 -25.6506 22.8448 30.1635 -25.4275 23.4668 27.2918 -25.8607 24.9221 27.9063 -26.6606 26.0786 27.9804 -22.872 23.6076 28.489 -22.5402 23.8675 30.7961 -23.3989 24.4618 31.9715 -22.2668 23.6392 29.515 -21.824 23.3361 28.5428 -23.6754 25.4223 29.0477 -23.368 24.6083 33.1995 -25.4639 27.5034 33.3763 -25.1543 28.4741 34.2334 -26.1875 29.307 33.4942 -25.7781 26.8458 32.5409 -24.7998 26.1794 32.2701 -23.6185 29.068 35.3067 -25.497 25.2814 31.6111 -20.8752 26.0343 35.6564 -20.9483 24.7449 35.9733 -20.7933 27.1281 35.5535 -19.8431 27.8638 36.3682 -20.8809 28.6152 35.8132 -18.3426 27.6609 37.2136 -18.498 28.8551 36.7088 -21.896 29.5032 35.5353 -19.9487 29.6811 35.2461 -27.7042 23.6759 33.3944 -28.256 25.9012 33.7722 -30.2743 24.7457 35.8634 -30.117 23.6258 35.0012 -29.7006 22.9789 33.2616 -26.3907 23.4724 33.2796 -31.3662 20.6819 31.3484 -31.9862 21.5082 32.81 -30.1014 20.5055 30.9736 -29.2338 20.2253 30.5629 -32.1256 22.5416 34.0753 -33.0047 22.0877 33.9302 -34.8026 22.5081 33.7534 -35.5574 22.3946 32.4585 -35.1326 21.5378 31.9867 -36.5955 23.7409 31.6586 -37.0666 23.5383 33.3016 -37.5482 24.2183 32.304 -36.1919 21.608 33.8119 -37.1422 24.5452 34.888 -37.3561 25.5548 32.9851 -41.0715 25.0239 36.2517 -40.5369 26.1364 35.757 -39.5652 25.3875 35.2723 -38.1677 25.3933 34.9789 -41.0464 25.3206 34.0706 -37.0581 25.6348 34.6061 -34.4426 7.64802 23.4481 -34.2855 6.55098 24.1819 -35.7831 7.58437 24.4264 -33.2396 7.71668 22.3221 -34.4726 8.88567 22.6647 -31.8561 6.65669 21.6582 -30.949 6.12369 20.6569 -31.5118 5.41298 19.9586 -29.9226 5.85372 19.6632 -32.0723 4.39956 19.3052 -31.8031 3.81323 20.588 -28.0468 4.51421 18.6503 -27.8327 5.58612 18.354 -39.2401 7.90928 24.0532 -39.5402 7.0608 25.032 -41.0023 6.56465 24.5218 -39.5873 9.29565 24.4945 -40.9474 8.91585 24.0832 -37.7436 5.80014 21.8198 -37.9345 7.28881 22.6717 -36.9587 5.44601 22.5413 -36.1897 5.07219 23.0598 -34.7522 5.67716 22.0488 -35.1539 4.49055 23.321 -29.6135 15.7004 22.8049 -30.6513 15.6917 23.6361 -29.342 15.4638 24.6685 -28.6142 15.2841 21.9878 -29.6013 14.8879 21.0922 -31.6498 16.428 23.9741 -31.1641 17.4521 25.32 -30.0739 18.178 26.7468 -32.6059 9.94078 20.9044 -31.4685 9.8099 21.5359 -31.0645 10.9352 20.5999 -33.6966 10.7001 20.954 -34.3528 9.63847 21.7712 -29.8103 11.2567 21.1818 -29.8149 12.2559 21.1426 -28.9668 19.5716 27.1091 -28.9771 18.0009 26.9 -29.7286 19.7411 29.3015 -31.141 19.7138 28.2392 -28.6361 16.4889 27.0942 -27.8911 15.4161 27.9707 -30.9058 19.9068 25.8714 -31.8507 19.3089 26.9355 -30.7929 21.23 25.9374 -32.3169 21.9349 25.5426 -33.9328 21.757 25.62 -33.8568 23.0026 23.8463 -6.17047 25.247 40.5409 -5.20168 25.1631 40.7741 -7.44242 24.8545 40.4788 -5.65229 24.445 40.2437 -8.2837 26.0823 41.3783 -9.08521 24.6318 40.7907 -9.09978 25.7283 40.9215 -9.11973 26.6303 41.3525 -5.01024 23.4263 40.6162 -3.84424 24.0021 40.0685 -4.6958 21.7266 40.8174 -9.87714 23.7079 39.7078 -6.27223 20.1227 42.0981 -6.16915 20.9739 40.8216 -7.25528 19.0875 42.3224 -7.83504 18.1777 42.6259 -4.3033 21.1 41.8381 -1.25039 25.2099 41.2725 -2.2419 25.359 40.3991 -2.53948 24.1559 40.3815 -0.0103204 26.6142 41.1563 -2.01876 26.946 39.9032 -2.73966 22.915 40.2921 -2.04195 28.752 40.0742 0.828613 30.8973 40.6087 1.41564 29.6916 41.5589 -1.89335 30.3604 39.5964 2.47327 29.1155 40.9584 -2.92813 29.9195 40.8805 -21.3026 32.9247 42.5857 -20.0422 32.5345 42.4216 -21.4874 33.1701 44.2601 -22.5333 32.3163 42.8954 -18.9251 31.767 45.0714 -19.4592 32.3033 46.53 -18.2265 30.98 43.6942 -15.7526 29.8827 42.1088 -16.6328 29.8367 43.1043 -14.8406 28.5033 42.1689 -17.7015 29.7568 43.2123 -17.6683 28.7228 44.2935 -16.7247 28.1726 43.8507 -13.7345 28.5563 43.0639 -14.5995 28.1473 43.6856 -17.6534 28.0691 45.7457 -11.8186 25.1398 44.3231 -13.0821 25.508 44.5267 -11.5805 25.5147 43.4271 -10.8585 25.2344 44.0597 -13.4555 26.5781 45.4452 -13.9719 25.6399 46.2991 -14.0579 28.0038 45.0697 -10.7717 26.5926 43.0616 -15.6033 27.8624 44.3719 -10.2905 28.3822 40.7693 -9.70542 27.1954 40.576 -11.0144 28.1129 42.121 -11.125 29.1054 42.1725 -11.8605 28.4582 40.6548 -11.0335 28.5683 43.0111 -20.3773 35.8652 39.5465 -20.4127 36.5209 37.7573 -19.5513 36.5208 40.3572 -19.602 38.0863 39.9758 -19.3137 37.9601 40.925 -19.9279 38.7118 40.6848 -20.0253 39.7695 40.045 -20.1365 36.0265 36.8013 -21.1069 37.3954 37.0153 -18.9488 39.2967 41.5027 -20.5004 42.2357 43.6611 -22.1284 41.6521 43.0444 -22.4108 42.3349 43.9457 -22.2092 40.6775 41.7975 -23.623 40.735 42.9108 -20.7454 40.4915 40.7092 -19.0462 40.3544 40.8629 -22.7408 44.3683 44.9446 -21.6793 44.9075 43.5794 -22.1471 44.2177 46.1248 -23.1527 43.1268 45.0381 -21.5746 44.8381 42.3192 -20.5559 45.8465 43.0482 -22.0026 42.03 47.6562 -22.8439 41.4416 50.8573 -22.3756 42.5496 50.2906 -23.5931 43.2292 50.7983 -21.3668 42.2809 49.1352 -20.0019 43.4038 48.8516 -24.6275 43.7425 50.4649 -16.7576 29.0695 39.6849 -15.9689 28.6721 38.691 -16.1812 29.9979 38.2921 -15.6906 27.152 38.9436 -17.2333 30.0961 37.2104 -14.7706 26.8457 40.2882 -13.3351 27.7264 40.4628 -18.5595 29.8163 36.1017 -18.795 30.7843 34.7814 -18.0602 30.1093 34.8474 -17.8828 31.0028 34.4348 -19.2198 32.0386 36.3167 -18.8741 31.6417 37.4414 -21.8142 30.526 37.4637 -22.2639 31.526 36.2146 -22.6118 34.5921 41.3631 -24.1642 33.7975 41.4587 -21.8578 33.6909 40.7407 -22.1506 33.3861 39.5311 -25.1237 32.1287 4
[...]
POINT_DATA 1686
FIELD FieldData 1
normals 3 1686 double
-0.461557 0.514708 -0.722523 0.846218 -0.354948 0.3974 -0.335041 -0.367582 -0.867543 0.865835 0.475154 0.156712 -0.914136 -0.365367 -0.175675 -0.207128 0.966899 -0.149013 -0.482928 0.875659 -0.00174493 -0.324176 -0.815623 0.479237 -0.0983389 -0.188589 -0.97712 -0.0150841 -0.89777 -0.440206 0.502071 0.759564 -0.413507 0.0611817 -0.641765 -0.764457 -0.285662 -0.895285 0.34185 0.521298 -0.546223 -0.655659 0.490714 0.599728 -0.632081 0.168493 0.965716 0.197491 -0.483707 0.707494 -0.515248 0.461441 -0.115202 -0.879659 -0.848833 0.515744 0.116152 -0.984659 0.107128 -0.13773 0.0588061 0.657163 -0.751451 -0.0796198 0.291696 0.953191 0.162032 -0.56937 -0.805955 0.768027 -0.640143 -0.0187521 0.492915 0.682206 0.540028 -0.786541 -0.270491 0.555147 0.504274 -0.210996 0.83737 0.838628 -0.477524 0.262056 -0.320083 0.331583 0.887468 0.458987 0.403318 -0.791622 -0.633056 -0.734113 0.245599 -0.258906 -0.819286 -0.511603 0.555972 -0.289397 0.779195 0.315614 -0.793183 -0.520815 0.779178 0.338398 0.527606 0.15016 -0.929512 0.336838 0.525597 -0.573885 -0.628016 0.581791 0.579013 0.571195 -0.250388 0.752995 0.608526 -0.534702 -0.156025 0.830512 0.432261 0.711559 -0.553926 0.702512 -0.047037 0.710116 -0.346581 0.909677 -0.228845 -0.584686 -0.509178 -0.63157 -0.670738 -0.439552 0.597415 0.7958 0.598774 0.0904012 -0.587057 0.616169 0.525071 -0.747153 -0.500225 -0.437649 -0.392015 -0.906328 0.157781 0.619697 -0.401012 -0.674659 0.885477 -0.180539 0.428178 -0.634436 0.0708116 0.769725 -0.129935 -0.741078 0.658726 -0.263496 0.964063 -0.0339433 0.355759 -0.914168 -0.194247 -0.288549 -0.410891 -0.864817 0.551759 0.00508504 0.833988 0.890158 0.0675965 -0.45061 -0.313982 0.851097 -0.420772 0.733765 0.671552 0.102985 0.925753 0.371019 0.0729788 0.822525 -0.444672 0.35457 0.790658 0.609342 -0.0596795 0.851698 -0.210495 -0.479899 -0.172756 -0.688668 -0.704196 -0.457036 0.875063 -0.159319 0.414265 0.206125 0.886509 0.529314 -0.67946 -0.508095 -0.308355 0.213055 0.927106 -0.4353 -0.810527 0.391866 0.155447 0.117726 0.980804 -0.251231 -0.336682 -0.907484 -0.245729 0.646054 -0.722656 0.938913 0.332478 0.0888869 -0.31527 -0.519028 0.79449 0.644037 -0.245464 0.724544 0.959307 0.273565 -0.069948 -0.130467 -0.835201 0.534244 -0.984789 -0.0836241 -0.152309 0.879922 0.473972 0.0329703 0.881594 0.43578 0.181348 -0.142331 -0.929734 -0.339614 -0.616039 -0.0973321 0.78168 -0.0838488 -0.995215 -0.0501602 -0.511811 0.856787 0.0629786 -0.798855 -0.0701969 -0.597414 -0.187354 0.46448 -0.865539 -0.475918 0.879469 0.00606178 0.86519 -0.500159 -0.035884 0.00501347 0.550248 0.834986 -0.45274 0.805039 -0.383326 -0.2223 -0.152765 -0.962936 2.42582e-05 -0.913775 0.40622 0.463961 0.662519 -0.588055 -0.953436 -0.300743 -0.0226539 -0.673985 -0.287763 -0.680394 -0.152791 -0.528366 -0.835155 -0.338009 -0.534322 0.774758 -0.179435 0.863537 0.471282 0.548708 0.578005 -0.604011 -0.449451 -0.863837 -0.227553 -0.155486 0.661072 0.734036 -0.952403 0.106619 0.28559 -0.72689 -0.423671 0.540494 -0.270614 -0.478565 -0.83531 0.0700293 0.130781 0.988935 -0.5057 -0.624915 0.594768 0.319491 -0.728791 0.605631 -0.492904 -0.738308 -0.460377 -0.311057 0.719038 0.621473 0.0464283 -0.887569 0.458329 -0.73158 0.572388 0.370356 0.184347 0.411957 0.892361 -0.330764 0.794306 -0.509581 -0.38826 0.890767 0.236194 -0.736928 0.39743 0.546796 0.344681 0.536296 -0.770442 0.00111492 -0.644621 0.764502 0.510457 0.848325 -0.140636 -0.894062 0.384498 -0.229812 -0.728953 -0.44706 0.518425 -0.412543 -0.892283 -0.183408 -0.414265 0.0110172 -0.91009 -0.326812 0.901524 -0.283634 0.96418 0.264191 0.02368 -0.203566 0.974148 -0.0979596 0.188351 0.826631 -0.530288 -0.420938 -0.531425 -0.735118 -0.933046 0.33323 0.135586 0.500342 0.736884 -0.454599 -0.89804 -0.384285 -0.214126 -0.788922 -0.121896 -0.602282 0.396786 -0.912027 0.103766 -0.0843479 0.705251 -0.703922 -0.936165 -0.23969 -0.257184 -0.229272 -0.964375 0.131963 -0.759793 0.649405 0.0314235 -0.588351 -0.416559 0.693053 0.104097 0.281163 -0.953998 0.37739 -0.00861232 0.926014 -0.884614 0.397237 0.244256 -0.702716 -0.709263 0.0560073 0.563755 0.747646 0.351007 -0.978316 0.0516217 0.200583 -0.746214 -0.0649174 0.662533 -0.499513 -0.353377 -0.790956 0.348268 -0.64945 0.675961 0.83496 -0.393378 -0.384832 -0.496993 0.617418 -0.609748 0.805536 -0.543675 -0.235648 -0.451486 -0.593533 -0.666242 0.335316 0.774615 -0.536223 0.355388 -0.863851 -0.357016 -0.771733 0.546594 -0.32506 -0.89489 -0.368895 0.251175 0.493978 -0.867337 -0.0609351 0.377245 -0.0756457 0.923019 -0.78795 -0.459309 0.410086 0.271105 0.891265 -0.363522 0.607584 -0.773391 0.180853 -0.896088 0.0345843 0.442527 0.931372 -0.331169 -0.151238 -0.263867 0.598706 -0.756257 0.262553 -0.596401 -0.758532 -0.650694 0.486734 0.582826 0.885748 -0.0670246 0.459302 -0.558251 0.00578528 -0.829652 -0.0187525 -0.572236 -0.819875 0.943 -0.332294 -0.0181991 -0.190645 -0.682055 0.706014 0.377151 -0.752024 0.540571 -0.453261 0.570454 0.684936 -0.707789 -0.358875 0.608477 0.624222 0.630175 0.461764 -0.10905 -0.432662 0.894937 0.350549 0.901162 -0.254994 -0.25726 -0.914444 -0.312426 0.395999 -0.00647065 -0.918228 0.935369 -0.217899 0.278577 0.378064 0.225745 -0.897835 -0.197055 0.405266 0.892709 -0.378142 0.644647 -0.664409 -0.751948 -0.642838 -0.146057 -0.365442 0.195377 0.910099 0.613972 -0.471878 -0.632748 0.180686 0.983372 -0.0182457 -0.980567 0.173125 0.0922827 0.716582 0.651427 0.249304 0.162083 -0.84817 -0.504318 -0.696634 -0.253874 0.671005 0.111327 0.619862 -0.776774 0.331454 -0.922993 -0.195507 -0.300814 -0.503953 -0.809656 0.727576 0.400365 0.557082 0.47455 -0.844091 -0.249625 0.784163 0.12667 0.607489 -0.249091 0.959484 -0.131699 -0.788756 0.186491 -0.585735 0.189512 -0.479923 -0.856598 0.751542 0.467162 0.465773 -0.886681 -0.418001 0.197668 0.125321 0.462914 -0.877499 0.0521874 -0.82644 -0.560601 -0.0434657 0.63093 0.774621 0.993698 0.104685 0.0400562 -0.0441481 0.856083 -0.514949 0.506792 -0.307543 0.805344 0.351435 0.886647 0.300584 -0.97096 0.0319476 0.237098 0.976349 0.209826 -0.0521147 0.542843 -0.480925 -0.6885 0.855106 -0.12519 -0.503111 0.169009 -0.977329 0.127529 -0.0117596 -0.142618 -0.989708 0.42823 -0.504226 -0.749917 0.770655 0.277403 0.573706 0.453609 -0.751929 -0.478375 -0.166403 0.0743786 0.983249 0.811166 0.57556 0.10364 0.056469 -0.855732 -0.514329 0.0270243 0.959012 0.282074 -0.852125 0.505101 0.136954 -0.945719 -0.0847171 -0.31375 -0.190851 0.0287453 0.981198 0.234039 -0.828075 0.509428 -0.579131 -0.449525 0.680099 0.108036 0.246938 0.96299 -0.373626 0.926933 -0.0346263 -0.443562 -0.815292 0.372226 -0.183722 0.759997 0.623419 0.56577 0.409539 0.715668 -0.950688 -0.269648 0.153238 -0.41608 0.842785 -0.341454 0.555652 0.0939109 -0.826094 0.841766 -0.0880951 0.532607 -0.341996 -0.822336 0.454754 0.267832 0.32954 -0.905356 0.661014 0.588437 -0.46562 0.818148 -0.5086 0.268255 -0.679517 0.524789 0.512692 0.541973 -0.519768 -0.660383 -0.691075 0.649214 -0.317704 0.841513 -0.540225 -0.00347848 0.0655762 0.00722323 -0.997821 -0.628367 -0.717934 0.299542 0.960804 -0.277196 0.00412049 0.0679203 -0.295483 -0.952931 0.337063 -0.881812 0.329844 -0.377332 0.44991 -0.809445 0.591495 0.621994 0.513086 0.375254 -0.113279 0.919974 -0.6753 -0.735193 0.0588253 -0.786866 0.239039 -0.568948 -0.854306 -0.269782 0.444274 -0.50577 -0.110012 -0.855625 0.948419 0.317016 -0.00158461 0.357842 -0.152682 0.921215 -0.16358 -0.671139 0.723059 0.932627 0.29731 -0.204486 0.504829 0.307663 -0.80653 0.103171 -0.878942 0.465636 0.0594067 -0.12217 -0.99073 -0.978474 -0.130886 -0.159552 0.330861 -0.358699 0.872849 0.939867 -0.29412 0.173618 -0.0472828 -0.690348 -0.721931 -0.0200066 0.867186 0.497583 0.505725 0.156986 0.848291 0.584487 0.568881 0.578575 -0.935888 -0.198715 0.290906 0.201544 -0.329588 0.922362 0.605563 0.795681 -0.0135874 -0.154768 0.958018 -0.241346 -0.81096 -0.10359 0.575858 0.64856 -0.474129 0.595459 0.644041 0.525095 0.556316 0.522575 0.824689 -0.216341 0.512339 -0.746007 -0.425421 0.551234 -0.371443 0.747109 -0.861225 -0.398663 -0.315214 -0.17141 -0.76596 0.619615 0.916432 -0.306861 0.256883 0.793269 0.604143 -0.0757328 -0.151568 0.00626848 0.988427 -0.680294 0.719104 0.141738 -0.843742 -0.0142159 -0.536561 -0.772173 -0.163672 0.613971 -0.438078 -0.773262 -0.458425 -0.450611 -0.718071 -0.5304 0.518184 -0.801981 -0.297174 -0.821332 0.325634 0.468377 0.968795 -0.0839113 0.233226 -0.0199531 0.902095 0.431076 -0.821461 -0.548353 -0.15656 -0.836031 0.548078 -0.0257498 -0.816078 -0.354016 -0.456825 -0.326752 -0.934792 0.139271 0.83925 -0.35898 -0.408403 0.641198 -0.76487 0.0619654 0.029525 -0.375586 -0.926317 0.0118339 -0.957327 0.288765 0.114914 -0.106092 -0.987694 -0.994883 -0.077793 -0.0644609 0.415127 -0.832043 0.367932 -0.248699 0.138213 0.958669 0.823564 0.541253 0.169668 -0.167942 0.690354 -0.703709 -0.465518 -0.512782 -0.721351 0.416509 0.863018 -0.285868 0.39108 0.896586 0.207823 0.265337 -0.728165 0.631959 -0.414271 0.909409 -0.0368036 -0.230706 0.271535 -0.934368 0.356319 -0.934231 0.0158002 -0.562872 -0.699045 0.441034 0.701308 0.358183 -0.616338 -0.471911 0.258066 0.843031 -0.599498 -0.0076042 0.80034 0.660997 -0.397826 0.636253 0.414773 0.253023 0.874038 -0.631179 -0.600728 -0.490652 0.803903 -0.253032 -0.538251 0.26974 0.283241 0.920334 -0.10536 -0.533976 -0.838909 0.442021 -0.723309 -0.530511 -0.438207 -0.769271 0.464969 0.469954 -0.656026 0.590571 -0.630422 0.689305 -0.356969 -0.597208 -0.344626 0.724276 0.346364 -0.894883 0.281455 0.636167 0.708938 0.304465 -0.228842 0.299935 0.926105 0.612052 -0.309086 0.727914 0.722008 -0.280328 0.632551 -0.541514 0.087847 0.83609 0.96003 0.094603 -0.263425 0.238022 0.374931 -0.895976 0.168102 0.982315 0.0824575 -0.348342 0.0441047 0.936329 -0.770491 0.443369 -0.458004 -0.151185 0.983218 -0.102107 -0.774976 -0.584754 -0.239741 -0.815477 0.267764 0.513127 -0.23039 -0.919061 0.319761 0.0915542 -0.537105 0.838532 -0.0190598 0.455421 0.890072 -0.754505 -0.191797 -0.627644 -0.110614 0.992526 0.0515411 0.262398 -0.158306 0.951886 0.227046 0.497341 -0.837318 0.563594 0.813897 -0.141185 -0.614275 0.751639 -0.240218 -0.325911 0.625438 0.70895 0.288364 -0.1262 0.949168 0.190988 0.931564 0.309375 0.0491401 -0.991719 -0.118658 -0.921227 0.377176 0.095284 0.690762 0.711076 -0.131221 0.994637 0.00471648 0.103321 -0.633462 -0.578916 -0.513403 -0.915827 0.103918 0.387894 0.552674 -0.395666 -0.733485 -0.861045 -0.338161 0.3798 0.911125 0.209646 -0.354825 0.788139 -0.346687 0.508572 -0.237972 -0.553508 0.798122 0.823505 -0.0143158 -0.567128 0.831669 0.402934 0.382061 -0.173935 -0.68798 -0.704577 -0.718819 -0.0550847 -0.693011 0.299892 0.953293 0.0360119 0.727288 -0.270737 0.630677 0.449109 -0.854971 0.259473 0.917386 0.252999 -0.307238 -0.300097 0.932604 0.200479 0.091463 -0.52167 -0.848231 -0.477071 0.165602 -0.863122 -0.734283 -0.419267 -0.533895 0.715238 0.47574 -0.511962 0.0734826 -0.873122 -0.481933 -0.138828 0.452622 -0.880829 0.204748 -0.647006 0.734481 -0.913255 -0.354389 -0.200933 0.715297 0.340661 0.610164 0.720154 0.540025 -0.435604 -0.412933 0.0745767 -0.907703 0.177406 0.893459 -0.412623 0.912228 0.21842 -0.346602 0.734822 -0.675039 0.066021 0.805635 0.263148 0.53076 -0.459929 -0.660065 0.593953 -0.741906 0.522107 -0.42069 0.292146 0.477917 -0.8284 0.975123 -0.0122287 -0.221327 -0.577282 -0.806805 -0.125747 -0.221119 -0.888933 -0.401128 -0.0716786 0.584149 -0.808475 -0.382202 -0.861967 0.333069 -0.977305 -0.211794 -0.00414531 -0.794588 0.568383 -0.213472 -0.343712 -0.419716 -0.84006 -0.051646 -0.82042 0.569424 -0.496322 -0.0926314 0.863182 0.364279 -0.925742 0.1015 0.674166 0.0690038 -0.735349 0.0592388 -0.718444 -0.693058 -0.614927 -0.787449 0.0422905 -0.564009 0.825733 0.0076559 -0.667262 -0.33575 0.664856 0.0580371 0.975661 0.211465 0.600836 0.269633 0.752525 0.245831 -0.664078 0.706093 -0.355005 -0.93371 -0.0464313 0.115465 -0.980676 -0.15793 0.954678 0.281482 -0.0967379 0.960788 -0.275201 0.0339163 0.379027 0.917395 0.121349 0.160333 -0.0233778 0.986786 0.751284 0.0910599 -0.653667 0.635892 -0.253669 0.728898 0.0901004 0.202127 -0.975206 -0.510926 0.267041 0.817095 0.634501 0.670306 0.384835 -0.339113 -0.530506 0.776895 -0.923609 0.383289 0.00596329 0.997388 -0.0217587 -0.0688726 -0.0299715 0.556139 0.830549 0.11646 0.991517 -0.0577101 -0.352618 -0.874001 -0.334338 0.146431 0.43538 -0.888258 -0.224068 -0.123378 0.966732 -0.01554 -0.19572 -0.980537 -0.907652 -0.320158 -0.271416 0.102789 0.176157 -0.978981 -0.432139 0.90013 -0.0549703 -0.16663 0.525783 0.834138 0.946867 -0.312161 -0.077445 0.188529 -0.372885 0.908523 -0.165205 0.662528 -0.730591 -0.83952 -0.418143 -0.346933 0.93444 0.13793 -0.328326 0.00626621 -0.0185231 0.999809 -0.201886 0.850822 0.485122 0.122627 -0.182789 0.975475 0.112816 -0.748189 0.653824 0.713668 0.0434367 -0.699136 -0.196027 0.677157 -0.709248 -0.728199 -0.514155 -0.453178 0.944241 0.0854742 0.317968 0.299836 -0.204271 -0.931865 -0.361691 -0.215181 0.907125 0.170755 -0.0856201 0.981586 0.487023 -0.157359 -0.859096 0.288736 -0.947039 -0.140528 0.903562 0.24141 -0.353974 0.459565 0.657095 0.597516 0.823449 -0.153537 -0.546221 0.8301 0.524781 0.188516 0.00665122 0.678319 0.734738 0.777903 -0.494542 -0.387679 -0.951704 -0.294868 0.0855061 0.0913825 -0.994825 0.0444185 -0.0426 0.249999 -0.967309 -0.948112 0.280016 -0.150582 -0.72316 -0.582409 -0.371267 0.214355 0.33264 0.918369 0.0290791 -0.993393 0.111016 0.889315 0.395977 0.22874 -0.283102 0.94159 -0.182376 0.872644 0.364216 0.32533 0.37455 -0.716652 -0.588321 0.758538 0.651032 0.0278841 0.618188 -0.246966 0.746225 0.676479 -0.132491 0.724446 -0.467824 -0.874312 0.129304 -0.0504724 -0.142603 -0.988492 -0.690863 0.448498 0.567061 0.119451 -0.42397 0.897764 0.245323 -0.730965 0.636794 -0.644384 0.748828 0.155002 0.280123 0.265703 0.92246 -0.573999 -0.656692 0.489163 -0.697154 0.412755 -0.586182 -0.78285 0.312465 0.538063 0.873183 0.338208 -0.350951 -0.800839 0.598809 0.00921396 -0.498013 0.635601 -0.589911 0.778415 0.591932 0.209014 -0.724842 -0.111554 -0.679823 0.549951 0.634527 -0.543074 0.0517757 0.902067 -0.428478 -0.121497 -0.679283 -0.72375 -0.64757 -0.388027 0.655811 -0.197912 -0.878203 -0.43542 0.515114 -0.284568 -0.808504 0.221224 -0.587394 0.778478 0.713026 0.593634 -0.373084 0.890341 0.238419 -0.387877 0.499608 0.611091 0.61397 0.739377 -0.650699 0.172952 0.0183491 0.226262 -0.973894 -0.484645 -0.553144 -0.677607 0.956699 -0.259282 0.132289 -0.803149 0.226742 0.550945 -0.850552 0.27763 -0.446634 -0.0474035 0.0508881 -0.997579 -0.172834 -0.969901 -0.171523 -0.775052 -0.603783 0.186388 0.457065 0.0538638 0.887801 0.940696 -0.293659 0.169869 -0.543723 0.125966 0.829758 0.240075 0.383848 -0.891642 -0.020192 0.972974 -0.230031 -0.165923 0.287425 -0.943322 -0.145731 -0.68555 -0.713291 -0.945446 -0.325662 -0.00872001 -0.917446 0.0705443 -0.391557 -0.978837 0.00112352 -0.20464 0.0831297 0.270146 -0.959224 -0.449243 -0.397539 0.80009 0.594907 -0.802649 0.0429015 0.316618 0.946668 -0.059775 0.971881 -0.176091 0.156329 -0.313718 0.822783 0.47393 -0.286257 0.720456 0.631664 0.916727 0.336554 0.215274 -0.943823 0.231006 -0.236293 -0.434665 -0.370526 0.820839 0.22959 0.521073 -0.822053 -0.818525 -0.291636 -0.494939 0.817813 0.418054 -0.39549 -0.972671 0.182542 0.14349 -0.962786 0.0609055 -0.263314 -0.302251 0.535302 0.788731 0.503295 -0.685935 -0.525535 0.923221 -0.262559 0.28058 0.971698 0.0712269 -0.225234 0.0902446 -0.988017 -0.125209 0.083 -0.271274 -0.958917 0.206163 -0.128962 -0.969982 -0.0215308 0.0630603 0.997777 -0.976187 0.200632 0.0824957 0.154959 0.801369 0.577751 0.267024 0.833863 -0.483084 0.904924 0.278322 0.321948 -0.528077 0.728257 0.43678 0.432575 -0.148763 -0.889241 0.0540765 0.422543 -0.904728 -0.48966 0.559226 0.668955 -0.640875 0.671609 -0.371781 0.984714 0.165615 -0.0539518 -0.226722 -0.660308 -0.715954 0.866818 -0.102397 -0.487997 0.74694 -0.522076 0.411725 -0.604527 0.730025 -0.318762 -0.237067 -0.890804 -0.387644 0.276203 -0.791818 0.544736 -0.119877 -0.419678 0.899722 -0.104948 -0.98579 -0.131163 0.261339 -0.604281 0.752693 -0.971501 -0.228246 -0.0639449 0.717738 0.150474 -0.67986 -0.149983 0.777278 0.611019 0.261646 -0.353953 -0.897919 0.124645 -0.958262 0.257288 -0.843183 0.301995 -0.444794 0.325669 0.860109 -0.392623 0.965725 0.247735 -0.0774807 -0.691688 -0.539695 -0.479893 -0.916591 -0.206476 -0.342388 0.045615 -0.363173 -0.930604 -0.971064 0.0119915 -0.238516 -0.956503 -0.290388 0.027873 -0.905112 -0.2865 0.31415 -0.408801 0.912376 0.0212679 0.550759 0.523032 -0.650463 0.642458 -0.160995 -0.749218 0.713191 -0.499647 0.491642 0.232801 -0.930874 -0.281561 -0.776697 -0.0689815 0.626086 -0.549157 0.823365 0.143169 0.327536 -0.525363 0.785311 -0.220809 0.765585 0.604254 -0.937225 0.21932 -0.271124 0.929164 -0.196309 0.313236 -0.440691 0.132213 0.887869 -0.932675 0.295144 -0.207383 -0.494364 0.0674744 0.866632 0.29678 0.169092 0.939856 -0.512368 -0.857481 -0.0469545 0.676551 -0.707478 -0.204338 -0.401444 0.328327 0.855011 -0.493267 -0.74828 -0.443583 0.0888221 -0.991439 -0.0957089 -0.424366 0.271877 -0.863711 0.998722 0.0448326 0.0233157 0.663142 -0.223165 0.71445 -0.165752 0.80618 0.567979 -0.271777 -0.751496 -0.601158 0.29074 -0.952548 -0.090123 -0.41044 -0.546965 0.729636 0.592123 0.805271 0.0304807 -0.0356186 -0.534557 -0.844381 0.413206 0.336821 0.846057 -0.577153 0.798105 -0.172981 0.906497 0.419184 0.0504845 0.438274 -0.802521 0.404817 -0.943205 -0.326718 0.0601705 -0.287083 0.822469 -0.491047 -0.522868 0.247289 0.815756 0.627975 0.712486 0.313066 0.734445 -0.630377 -0.251427 0.507181 0.060235 0.859732 -0.423439 -0.0885857 -0.901583 0.237471 -0.8237 0.514903 -0.283976 0.602267 0.746078 -0.892043 0.22463 0.392173 0.254551 0.524871 0.812228 -0.0591445 -0.626154 0.777453 -0.967679 -0.22783 -0.108126 0.9213 -0.202258 0.332111 0.643178 -0.491513 0.587144 -0.320942 -0.864008 0.387925 -0.301702 0.774969 -0.555337 0.301571 -0.790851 0.53255 -0.822377 -0.362996 -0.438098 0.900532 0.434542 0.0146529 -0.717848 0.296975 0.629682 0.197298 -0.973184 0.118265 0.100026 0.211795 -0.972182 -0.633017 0.758331 -0.155638 0.341831 -0.530788 0.77551 -0.252438 0.839557 0.48106 0.400717 -0.57073 -0.716724 0.613432 -0.412308 0.673575 -0.848417 -0.436999 0.298698 0.495195 -0.639329 0.588252 0.695774 -0.551429 -0.460244 0.703778 0.661896 -0.258052 0.660042 -0.672092 0.335614 0.615105 0.455139 -0.643813 -0.917739 -0.317134 0.239126 -0.594388 0.602845 -0.532241 0.435525 -0.0133795 0.900077 0.132042 -0.867985 0.478713 -0.303482 -0.854606 -0.421364 -0.577284 -0.439778 -0.687996 0.150277 0.981098 -0.121916 -0.422914 0.17134 -0.889824 0.384211 -0.759506 0.524912 0.939814 -0.230851 0.251908 0.729279 -0.157818 -0.665767 -0.711952 0.651565 0.261892 0.358365 -0.0355815 0.932903 0.956488 -0.244534 0.159167 -0.328903 0.82461 -0.460263 -0.89946 -0.400333 0.175231 0.856092 0.279126 0.434965 -0.579324 0.143161 -0.802427 0.356239 -0.21042 -0.910394 0.253722 -0.52972 0.809334 0.0673725 -0.526873 0.847269 -0.70103 -0.711988 0.0403758 0.45536 0.823293 0.338876 0.568468 0.633849 -0.524479 -0.0813366 0.442392 0.893126 -0.744316 0.609426 0.273117 0.263106 -0.87477 -0.406881 -0.715192 -0.0667169 -0.695736 -0.856115 -0.426283 -0.292148 0.314271 0.758674 0.570655 -0.921103 0.386609 0.0458678 -0.709566 -0.143107 0.689954 0.21902 0.548903 -0.806682 -0.766356 0.573808 -0.288865 -0.757774 -0.59743 0.262404 0.577368 0.662752 0.476872 0.83344 0.451683 0.318371 -0.532984 0.839808 -0.103199 -0.0876021 0.982389 0.165037 -0.552701 0.562909 -0.614536 0.363641 0.919601 0.148657 -0.584375 0.779172 0.226708 0.91726 0.0622274 -0.393398 -0.773538 -0.369617 -0.514803 -0.242108 0.693084 0.678983 0.481022 0.536647 0.693273 -0.520026 0.776918 -0.354925 -0.276746 -0.229737 -0.933077 -0.0742165 -0.975971 -0.20487 -0.0532799 0.772165 -0.633185 -0.733662 0.3023 -0.608568 -0.669826 -0.72255 0.171042 0.540175 0.254987 -0.801993 -0.868403 0.330127 0.369989 -0.29744 -0.288022 0.91026 0.570962 -0.618149 0.540272 0.727203 -0.401202 0.556967 0.064509 0.94528 0.319819 -0.795062 0.0682923 -0.602671 0