# vtk DataFile Version 4.0
Generated by libgran
ASCII
DATASET POLYDATA
POINTS 1686 FLOAT
-32.9241 1.50501 6.74355 -31.6922 0.697627 7.9891 -33.6025 1.5885 5.09512 -32.4908 2.48152 6.17596 -34.2777 -1.11658 8.15949 -34.0867 2.14461 4.02614 -31.7384 -0.257622 12.7139 -31.6927 -1.94068 13.2451 -32.2057 0.433943 11.6788 -32.2345 -0.675929 10.2755 -31.6835 0.970219 10.314 -31.0036 1.0427 9.19546 -31.5028 -3.50824 15.8293 -30.6081 -3.22826 14.8863 -30.586 -2.08193 14.8745 -29.8255 -0.561767 14.4448 -29.2048 -0.308072 15.1867 -29.1236 0.242682 13.7771 -33.0401 -4.17194 13.7947 -35.1351 -4.70066 15.1476 -34.0221 -4.23683 14.5872 -34.2994 -4.51201 16.2919 -35.911 -5.15212 14.1602 -33.7025 -4.85522 17.2891 -33.9344 -3.49385 17.7681 -34.2551 -3.05069 18.8432 -32.9744 -3.02642 19.1729 -32.7364 -4.50939 21.8732 -33.806 -3.58278 22.4945 -33.0132 -3.59021 20.8203 -32.6628 -5.7501 22.3457 -33.6943 -7.19998 22.0091 -33.5829 -3.57692 24.1634 -32.2183 -4.06049 19.5469 -33.0564 -7.86336 20.0292 -33.7945 -9.06054 19.781 -31.7777 -8.21773 19.944 -30.6743 -8.32301 19.9137 -30.2424 -7.07333 21.1497 -30.9994 -6.44752 22.5915 -29.9176 -5.63681 21.2585 -33.0675 -10.145 20.8165 -24.845 -12.3769 23.3907 -25.7569 -11.9251 22.535 -27.0238 -12.854 22.438 -24.4766 -11.6019 25.1866 -25.866 -11.5853 25.5999 -28.4561 -13.7806 22.5327 -30.2398 -11.3773 19.8511 -29.1961 -10.8384 19.0816 -29.7691 -12.5036 20.3783 -31.2922 -12.2552 20.7078 -29.0481 -13.4854 21.4356 -32.1692 -11.2511 21.5085 -28.204 -12.1152 18.175 -28.1187 -13.3834 17.0498 -27.2494 -15.5335 17.7659 -26.8714 -15.3937 16.4985 -28.0806 -14.6185 16.5365 -26.0054 -14.9012 18.7862 -25.0448 -14.9334 16.2086 -24.4571 -14.6854 19.275 -24.4051 -15.7724 19.5901 -24.2159 -13.3218 12.4978 -25.2229 -13.8067 12.2161 -25.5588 -12.2978 12.8744 -22.958 -13.3266 12.9289 -22.7936 -14.0971 11.4723 -22.8973 -13.0387 14.77 -23.6751 -13.734 16.0195 -36.085 15.6109 3.42012 -36.2591 15.0772 1.51687 -36.2333 14.088 1.37272 -35.1304 16.118 4.59317 -34.6149 15.9751 5.55126 -33.6567 16.2592 5.58481 -34.0597 15.7673 6.35659 -39.4064 14.5775 0.843804 -40.1792 15.2847 0.0261006 -38.3582 15.8819 0.412716 -38.7424 14.22 1.66055 -39.6818 12.8181 1.08031 -40.4591 11.7913 1.48884 -41.2211 10.7131 2.17827 -45.4402 11.3948 1.42757 -45.6232 10.4805 0.714585 -45.9962 12.7217 0.528165 -44.8421 12.9142 2.5806 -42.1617 10.2127 2.07352 -41.2089 9.14484 1.32951 -41.5087 9.37486 0.0582976 -41.2263 8.39893 -0.465413 -41.188 7.67042 0.938496 -41.3513 10.816 -0.939602 -42.845 9.89014 -0.529281 -41.3971 11.1599 -2.23309 -41.3235 6.22099 0.528781 -41.6904 6.26022 2.10676 -42.3109 7.58301 -6.78263 -41.4833 7.25557 -7.77045 -42.5428 5.84194 -7.46083 -42.7903 9.08798 -8.48355 -43.5475 8.53458 -8.99736 -43.7936 9.37345 -7.31252 -44.7147 8.1677 -9.66011 -44.5507 8.82004 -7.82633 -43.5587 4.37983 -7.15446 -43.4231 9.7434 -5.206 -44.1226 9.71842 -6.34907 -43.5437 9.76478 -3.98495 -43.9327 9.62549 -2.93919 -44.7191 9.33955 -2.19397 -43.8764 9.17561 -1.56142 -45.7321 10.7189 -2.48905 -44.1918 10.5053 -0.491522 -41.1168 3.72911 -9.62596 -39.8718 3.83063 -10.7938 -40.4488 2.66216 -9.32053 -41.3668 4.98886 -9.28143 -41.6876 6.21662 -9.72183 -43.3329 6.18734 -9.60614 -40.9928 1.14434 -8.80167 -44.4376 5.76045 -10.104 -43.5247 0.919814 -6.0144 -42.8344 2.06023 -6.25027 -43.9679 2.80213 -6.46775 -41.6149 3.10364 -6.69631 -25.7413 13.0722 19.6582 -26.2287 14.0044 20.4716 -24.71 14.2317 20.016 -27.0644 12.3052 18.5904 -28.8855 12.6926 19.8894 -29.4453 10.2559 18.1015 -29.6962 11.8306 17.1234 -30.0641 9.1424 17.9669 -29.4736 8.39759 18.4893 -28.9486 11.768 16.4621 -31.6783 8.63909 18.2599 -30.7482 9.16168 16.6659 -32.1097 8.35913 19.8668 -26.6791 4.08739 13.3059 -26.4978 2.97421 13.1615 -27.0151 5.26774 13.8177 -28.5526 4.55984 13.6757 -27.9777 2.23174 13.8498 -27.6796 1.89591 12.4162 -28.443 1.53708 15.1769 -27.3022 1.12807 11.267 -26.9388 1.33243 10.2772 -29.7115 8.77551 15.6229 -30.9065 8.73958 15.041 -28.4621 8.9168 15.0148 -30.9162 7.23444 14.0846 -32.0375 8.64337 13.9488 -31.4438 5.99457 14.0052 -30.0344 5.48847 13.8256 -33.4007 6.67352 5.68786 -34.5044 6.26682 5.06785 -32.8262 7.50126 6.3071 -32.504 5.84238 6.87713 -36.253 5.80261 5.75367 -34.3574 4.14829 6.83375 -37.3965 6.38716 5.31124 -37.2447 6.35572 3.8044 -40.4934 5.2679 4.1266 -38.9437 4.73969 4.17277 -41.6658 5.75725 3.73795 -42.0648 5.16019 2.04706 -37.8351 6.05411 3.00353 -38.3519 4.0392 5.42231 -32.5743 5.58114 11.7684 -31.9452 7.90151 10.8309 -33.2032 8.18772 12.0146 -33.3666 8.51857 13.0585 -34.1368 7.48269 13.4928 -32.398 10.0556 13.252 -34.5599 6.17241 14.1193 -34.769 3.41093 9.38474 -34.3236 3.21165 10.6216 -33.8587 3.60965 7.63052 -33.6746 3.41745 11.8417 -26.0561 23.2629 28.4106 -26.4495 21.9746 28.9123 -26.0326 22.7869 29.9771 -25.8333 23.4529 27.1136 -26.2291 24.9059 27.7579 -27.0042 26.0769 27.8618 -23.2606 23.5219 28.2795 -22.8944 23.7361 30.5861 -23.726 24.3277 31.7821 -22.6419 23.5239 29.298 -22.2177 23.2284 28.3151 -24.0197 25.3426 28.8786 -23.6758 24.4508 33.0121 -25.7122 27.3882 33.262 -25.3622 28.3505 34.1131 -26.4076 29.2005 33.4115 -26.0496 26.7498 32.4208 -25.0879 26.0692 32.127 -23.7845 28.9184 35.1383 -25.8107 25.1953 31.4634 -21.0688 25.8738 35.1845 -21.1721 24.5715 35.4327 -20.9695 26.97 35.1375 -19.9769 27.6555 35.9453 -21.0332 28.4414 35.4802 -18.4407 27.3992 36.708 -18.6096 28.6197 36.2757 -22.0529 29.3486 35.2978 -20.1197 29.5311 34.9283 -28.0284 23.6053 33.2475 -28.5296 25.8339 33.6693 -30.5454 24.6857 35.7663 -30.4227 23.5785 34.8824 -30.0416 22.9542 33.1265 -26.7208 23.3775 33.1121 -31.781 20.7308 31.1918 -32.3645 21.5434 32.6759 -30.5249 20.5325 30.7991 -29.6687 20.2402 30.3732 -32.4658 22.5559 33.9616 -33.3565 22.1242 33.8191 -35.1465 22.5872 33.6723 -35.9193 22.5171 32.3848 -35.5186 21.6617 31.8899 -36.9378 23.9017 31.6263 -37.3932 23.6744 33.2706 -37.8723 24.3854 32.2935 -36.5539 21.7157 33.7294 -37.4281 24.649 34.8785 -37.6433 25.7028 32.9998 -41.3294 25.1784 36.3002 -40.7778 26.2904 35.8235 -39.8277 25.5327 35.3105 -38.434 25.5164 34.9998 -41.3243 25.5228 34.126 -37.3241 25.7422 34.6183 -35.8336 8.60628 22.9189 -35.8507 7.56533 23.7452 -37.2642 8.73696 23.7523 -34.5229 8.47919 21.9261 -35.6731 9.77048 22.0441 -33.1824 7.25531 21.4977 -32.226 6.5729 20.6438 -32.7718 5.85751 19.9368 -31.1275 6.14489 19.793 -33.3355 4.83454 19.3014 -33.2693 4.34622 20.65 -29.2723 4.5955 19.0849 -28.9392 5.62472 18.7496 -40.6154 9.33072 22.9704 -41.1001 8.59235 23.9644 -42.5391 8.18746 23.3242 -40.8733 10.7729 23.2721 -42.211 10.4828 22.7339 -39.0961 6.92723 21.0755 -39.2337 8.48998 21.7948 -38.4318 6.56369 21.9052 -37.7629 6.16524 22.5328 -36.1722 6.5531 21.6534 -36.8227 5.52037 22.9565 -30.0977 15.8208 22.6489 -31.1892 15.8677 23.4069 -29.9702 15.5535 24.5237 -29.0863 15.3157 21.8996 -30.0385 15.0282 20.9279 -32.1658 16.6519 23.698 -31.6619 17.6345 25.0679 -30.5597 18.3081 26.5111 -33.5573 10.4897 20.4047 -32.5035 10.2183 21.1296 -31.8851 11.2875 20.2465 -34.5601 11.3569 20.3001 -35.3997 10.4258 21.1085 -30.6536 11.4485 20.9339 -30.5327 12.4409 20.9108 -29.4363 19.6788 26.9086 -29.4642 18.115 26.6544 -30.1886 19.7918 29.1087 -31.605 19.8083 28.0514 -29.1842 16.5827 26.772 -28.5124 15.4299 27.605 -31.3768 20.0714 25.6898 -32.3231 19.4496 26.7388 -31.2499 21.3901 25.8037 -32.7766 22.1153 25.4592 -34.3907 21.9354 25.5647 -34.3526 23.2432 23.8363 -5.97118 25.0251 39.0887 -4.98445 24.9756 39.2433 -7.2277 24.5822 39.1156 -5.44709 24.2523 38.7307 -8.04271 25.7528 40.1104 -8.83074 24.2848 39.5485 -8.87784 25.3764 39.7093 -8.89897 26.2665 40.1646 -4.73822 23.2524 39.0247 -3.64259 23.8884 38.4033 -4.34183 21.5634 39.1608 -9.67346 23.3616 38.5041 -5.70656 19.8629 40.5208 -5.7491 20.7353 39.2553 -6.59495 18.7553 40.7897 -7.0863 17.8038 41.1202 -3.84278 20.9394 40.1355 -1.02218 25.1913 39.4272 -2.10042 25.3076 38.6578 -2.32423 24.0891 38.6169 0.111198 26.6779 39.2583 -2.02243 26.9225 38.2106 -2.48155 22.8433 38.5113 -2.13758 28.7158 38.4597 0.636769 31.0208 38.8054 1.38567 29.8235 39.6461 -2.13401 30.3467 38.0381 2.40893 29.3359 38.9208 -3.00875 29.7942 39.3959 -21.0379 32.2481 42.4562 -19.8035 31.8233 42.2038 -21.1338 32.3924 44.1497 -22.2729 31.6609 42.7886 -18.546 30.9255 44.7183 -18.974 31.3882 46.2359 -17.9423 30.1943 43.2675 -15.5612 29.235 41.4906 -16.3724 29.1187 42.5377 -14.605 27.8859 41.4325 -17.4286 28.9983 42.7107 -17.2924 27.9227 43.742 -16.3633 27.4232 43.2162 -13.4446 27.9394 42.256 -14.2538 27.4764 42.9138 -17.1616 27.195 45.1526 -11.3726 24.5296 43.2116 -12.6215 24.8585 43.5364 -11.2168 24.9536 42.3194 -10.4396 24.659 42.8755 -12.9496 25.876 44.5291 -13.3629 24.8858 45.3804 -13.6183 27.2948 44.2527 -10.4613 26.0662 41.9442 -15.2011 27.13 43.6504 -10.1797 27.982 39.7217 -9.56586 26.8251 39.4514 -10.8002 27.6267 41.1045 -10.9265 28.6124 41.2161 -11.755 28.0269 39.7214 -10.765 28.0353 42.0166 -20.1789 35.3427 39.5388 -20.3122 36.1295 37.808 -19.2574 35.8933 40.3242 -19.2442 37.4772 40.0245 -18.916 37.2871 40.9497 -19.5009 38.0802 40.7798 -19.574 39.1736 40.1996 -20.1357 35.6948 36.8008 -21.0117 37.0895 37.1864 -18.4527 38.5714 41.5735 -19.7127 41.4013 43.9826 -21.4046 40.9609 43.4212 -21.5952 41.5866 44.3858 -21.6112 40.0868 42.1157 -22.96 40.1484 43.3066 -20.221 39.8949 40.9358 -18.5258 39.6648 40.9932 -21.7042 43.5141 45.6012 -20.6491 44.0928 44.2472 -21.0852 43.1969 46.7343 -22.2214 42.3091 45.5928 -20.5998 44.1124 42.9819 -19.4812 44.9875 43.7362 -21.0767 40.8573 48.0306 -21.8674 40.0206 51.1856 -21.3223 41.1385 50.7153 -22.4595 41.8609 51.3372 -20.376 40.9054 49.5007 -18.9297 41.9348 49.2751 -23.4518 42.4934 51.0925 -16.7187 28.637 39.1585 -15.9864 28.3022 38.1004 -16.2081 29.6525 37.8013 -15.6857 26.7713 38.2332 -17.3133 29.8249 36.7837 -14.6607 26.3814 39.4765 -13.222 27.2664 39.5922 -18.6914 29.6125 35.7244 -18.9798 30.6515 34.4702 -18.2481 29.9699 34.4658 -18.0828 30.8833 34.0938 -19.3248 31.8268 36.0879 -18.9323 31.3643 37.1715 -21.8738 30.2673 37.2505 -22.3752 31.3533 36.0965 -22.3358 34.0399 41.434 -23.9133 33.3025 41.5696 -21.66 33.1547 40.7075 -22.04
[...]
POINT_DATA 1686
FIELD FieldData 1
normals 3 1686 double
-0.412909 0.484076 -0.771477 0.818981 -0.323307 0.474071 -0.265497 -0.400582 -0.876952 0.846134 0.492431 0.203885 -0.958967 -0.233235 -0.161193 -0.218787 0.956691 -0.19203 -0.440105 0.896159 -0.0566327 -0.3944 -0.786904 0.474585 -0.0272478 -0.204594 -0.978468 -0.00158017 -0.905278 -0.424817 0.549443 0.74087 -0.386295 0.130446 -0.668384 -0.732288 -0.352457 -0.870009 0.344758 0.54221 -0.590022 -0.598233 0.564317 0.556306 -0.609975 0.196238 0.963855 0.180205 -0.424402 0.71016 -0.561743 0.50559 -0.159406 -0.84792 -0.834079 0.551321 0.0188933 -0.96507 0.152381 -0.21312 0.147933 0.616211 -0.773563 -0.129355 0.341026 0.931112 0.189158 -0.603842 -0.774335 0.726261 -0.684235 0.0660885 0.494349 0.677132 0.545079 -0.815054 -0.233971 0.530042 0.465598 -0.209703 0.859792 0.781167 -0.565089 0.265427 -0.288365 0.361514 0.886653 0.504385 0.354085 -0.78754 -0.70757 -0.675619 0.207083 -0.3239 -0.774266 -0.543692 0.511385 -0.355649 0.782304 0.290496 -0.824359 -0.485845 0.796395 0.24632 0.552342 0.0582927 -0.950856 0.304098 0.482326 -0.60069 -0.637599 0.621105 0.495416 0.607282 -0.189281 0.754264 0.628696 -0.5677 -0.128462 0.813151 0.51413 0.682257 -0.519804 0.668759 -0.133572 0.731382 -0.331019 0.923769 -0.192553 -0.580903 -0.471979 -0.663165 -0.685976 -0.456979 0.566222 0.801912 0.583127 0.130003 -0.587474 0.599694 0.543361 -0.746366 -0.469608 -0.471599 -0.404755 -0.909439 0.0953657 0.638933 -0.370527 -0.674147 0.875465 -0.216866 0.431891 -0.647592 0.0316035 0.761332 -0.154423 -0.764861 0.625413 -0.229466 0.97252 0.0393778 0.353171 -0.906235 -0.232395 -0.267835 -0.361991 -0.892876 0.525362 -0.0418539 0.849849 0.903385 0.0979302 -0.4175 -0.305893 0.873126 -0.379579 0.718587 0.674222 0.170461 0.923233 0.362441 0.127586 0.829758 -0.458428 0.318347 0.77775 0.628565 0.00321329 0.865773 -0.151013 -0.477108 -0.14123 -0.635855 -0.758777 -0.477156 0.873052 -0.10051 0.392047 0.146287 0.908239 0.556468 -0.624199 -0.548378 -0.331315 0.141576 0.932838 -0.446455 -0.836896 0.316676 0.0361653 0.158232 0.986739 -0.137961 -0.37548 -0.916505 -0.16376 0.61372 -0.772354 0.918438 0.348938 0.186315 -0.402967 -0.491918 0.771773 0.555228 -0.207774 0.805327 0.958194 0.284144 0.0335524 -0.184747 -0.81426 0.550317 -0.957622 -0.107072 -0.267387 0.863418 0.490198 0.119229 0.848765 0.456745 0.266424 -0.0906343 -0.94515 -0.313811 -0.686702 -0.0816216 0.722342 -0.0753507 -0.996614 -0.0329158 -0.501683 0.864936 -0.0141627 -0.684701 -0.0493748 -0.72715 -0.0543235 0.461943 -0.885244 -0.456733 0.887084 -0.0669077 0.865197 -0.496259 0.0718369 -0.0875911 0.571601 0.815844 -0.387347 0.801625 -0.455368 -0.104993 -0.174306 -0.979078 -0.0666667 -0.902815 0.42483 0.544688 0.639511 -0.542532 -0.948958 -0.286353 -0.132211 -0.590511 -0.295563 -0.750959 -0.0688458 -0.546621 -0.834545 -0.435725 -0.507394 0.743435 -0.209142 0.879126 0.428248 0.618492 0.551682 -0.559567 -0.441102 -0.861948 -0.249949 -0.217234 0.682854 0.69751 -0.974422 0.129443 0.1837 -0.786038 -0.397388 0.473527 -0.192825 -0.496321 -0.846454 -0.0288463 0.156021 0.987332 -0.574741 -0.600155 0.556316 0.242409 -0.717381 0.653148 -0.457028 -0.742361 -0.489923 -0.362936 0.738758 0.567903 -0.0261622 -0.878051 0.477851 -0.760208 0.592113 0.267368 0.0824939 0.428173 0.899924 -0.252741 0.787262 -0.562441 -0.397874 0.901558 0.169971 -0.786666 0.422609 0.450065 0.458403 0.524127 -0.717745 -0.118595 -0.644334 0.755493 0.536699 0.837147 -0.105538 -0.857494 0.390606 -0.33486 -0.787848 -0.41988 0.450552 -0.42547 -0.873489 -0.236626 -0.31684 -0.00701637 -0.948453 -0.277631 0.904776 -0.322956 0.96793 0.235643 0.0870837 -0.165536 0.977545 -0.130397 0.251587 0.807764 -0.533124 -0.409534 -0.492347 -0.768034 -0.896953 0.439797 0.0453165 0.62181 0.667123 -0.410243 -0.913603 -0.274692 -0.29979 -0.747691 -0.0269815 -0.663499 0.299528 -0.92936 0.21581 0.0486716 0.645371 -0.762317 -0.918322 -0.184148 -0.35039 -0.327818 -0.928956 0.171977 -0.698892 0.708055 -0.101032 -0.69588 -0.319162 0.64334 0.234266 0.203425 -0.950651 0.264519 0.0392038 0.963583 -0.890562 0.410194 0.196571 -0.709293 -0.702981 0.0521716 0.554536 0.77016 0.315188 -0.982919 0.0622573 0.173188 -0.7706 -0.039492 0.636094 -0.472461 -0.375323 -0.797442 0.305356 -0.655169 0.691023 0.84982 -0.392517 -0.351761 -0.486412 0.596879 -0.638075 0.802405 -0.589597 -0.0923111 -0.392621 -0.625525 -0.674216 0.446965 0.730885 -0.51578 0.382952 -0.87961 -0.282195 -0.738329 0.529316 -0.417965 -0.910535 -0.360263 0.202824 0.498866 -0.866368 0.0232181 0.291124 -0.0709358 0.954052 -0.812578 -0.477634 0.334041 0.283356 0.898671 -0.334813 0.605611 -0.760203 0.235216 -0.935988 0.0134176 0.351777 0.943584 -0.323096 -0.0725079 -0.20749 0.571136 -0.794199 0.359212 -0.602577 -0.712648 -0.712102 0.493772 0.499099 0.83755 -0.0344378 0.545274 -0.460302 -0.00442264 -0.887751 0.0613423 -0.592633 -0.803133 0.949545 -0.300966 0.0882201 -0.245753 -0.666044 0.704266 0.328356 -0.728045 0.601774 -0.50384 0.609467 0.612124 -0.754178 -0.323255 0.571596 0.590777 0.654112 0.472356 -0.179463 -0.381771 0.906666 0.377828 0.882869 -0.278907 -0.24357 -0.928512 -0.28025 0.465404 -0.0168225 -0.884938 0.910722 -0.216107 0.351969 0.444854 0.215544 -0.869279 -0.261652 0.421908 0.868062 -0.373346 0.663293 -0.648579 -0.766674 -0.624996 -0.146939 -0.349801 0.187255 0.917919 0.596157 -0.473361 -0.64848 0.200418 0.979701 -0.00419549 -0.97557 0.191246 0.108111 0.732797 0.632555 0.250764 0.138384 -0.842637 -0.520397 -0.693236 -0.251021 0.675583 0.114099 0.630507 -0.767752 0.310086 -0.926056 -0.215097 -0.32127 -0.484075 -0.813915 0.743377 0.374159 0.554433 0.454996 -0.848982 -0.268716 0.804942 0.113284 0.582439 -0.240424 0.963328 -0.119148 -0.792431 0.210583 -0.572458 0.169296 -0.470039 -0.866258 0.772824 0.454658 0.442752 -0.892135 -0.403788 0.202609 0.102013 0.507703 -0.855471 -0.00125676 -0.794562 -0.607182 -0.00268338 0.588519 0.808479 0.995291 0.0969344 -0.000609226 -0.0610228 0.882807 -0.465756 0.540918 -0.353243 0.7633 0.371969 0.867232 0.330981 -0.958712 0.0244435 0.283326 0.974548 0.206981 -0.0861115 0.524185 -0.479726 -0.703629 0.846292 -0.133791 -0.515645 0.14946 -0.982857 0.107952 -0.0267469 -0.124386 -0.991873 0.407869 -0.499935 -0.764008 0.783354 0.251946 0.568225 0.430579 -0.75291 -0.497723 -0.152959 0.0596908 0.986428 0.825478 0.554567 0.105082 0.0307518 -0.846802 -0.531018 0.0516835 0.952765 0.299278 -0.839 0.521075 0.156715 -0.951046 -0.0580473 -0.303548 -0.178293 0.0120265 0.983904 0.222414 -0.843423 0.48905 -0.580341 -0.451453 0.677786 0.124954 0.224186 0.966503 -0.354089 0.935152 -0.0105719 -0.456372 -0.813416 0.360665 -0.159846 0.750364 0.641408 0.583035 0.382263 0.7169 -0.954171 -0.253475 0.159084 -0.402576 0.858502 -0.317658 0.547547 0.100853 -0.830675 0.846076 -0.117116 0.520037 -0.353501 -0.825067 0.440796 0.263839 0.342867 -0.901571 0.754775 0.490108 -0.436015 0.737698 -0.550837 0.390359 -0.675765 0.620792 0.397441 0.555969 -0.617195 -0.556749 -0.594248 0.674094 -0.438711 0.784512 -0.606692 0.128323 0.171895 -0.0757177 -0.982201 -0.717676 -0.639672 0.275249 0.926621 -0.352288 0.131403 0.153968 -0.383297 -0.910701 0.220169 -0.871616 0.437962 -0.248899 0.419186 -0.873116 0.581939 0.610038 0.537774 0.260666 -0.0724285 0.962708 -0.745351 -0.665941 0.0312087 -0.693582 0.261053 -0.671413 -0.919415 -0.157454 0.360395 -0.418284 -0.132698 -0.898571 0.969151 0.23109 0.0857003 0.239551 -0.109847 0.96465 -0.304799 -0.594631 0.743984 0.973646 0.19618 -0.116306 0.61711 0.19168 -0.763174 -0.033401 -0.841048 0.539928 0.120366 -0.117573 -0.985743 -0.971149 -0.0706661 -0.227762 0.247911 -0.384879 0.889049 0.891046 -0.387483 0.236421 -0.0611341 -0.675037 -0.735246 -0.0054116 0.854845 0.518855 0.509286 0.127848 0.851048 0.592901 0.545703 0.592179 -0.974853 -0.0826706 0.206949 0.0789097 -0.35412 0.931865 0.697332 0.715086 0.0487934 -0.0279722 0.949827 -0.311524 -0.867614 0.0187523 0.496885 0.534103 -0.554069 0.638546 0.655051 0.438321 0.615453 0.530537 0.824984 -0.194762 0.502576 -0.738822 -0.448953 0.550709 -0.398324 0.733524 -0.865684 -0.381793 -0.323767 -0.222506 -0.793408 0.566564 0.894331 -0.359429 0.266424 0.798702 0.598702 -0.0602518 -0.147605 -0.02311 0.988776 -0.671751 0.720016 0.174148 -0.854984 0.00513959 -0.518629 -0.759122 -0.185011 0.624103 -0.447008 -0.75654 -0.477316 -0.462644 -0.723324 -0.512604 0.524091 -0.772773 -0.357982 -0.793875 0.280463 0.539539 0.986735 -0.0494501 0.154622 -0.0211325 0.890111 0.455253 -0.809164 -0.577832 -0.106599 -0.856265 0.513688 0.0541809 -0.835133 -0.376423 -0.401072 -0.277866 -0.95046 0.139342 0.817769 -0.314445 -0.482057 0.674254 -0.738492 -0.00318123 -0.0335508 -0.345433 -0.937843 0.100269 -0.957387 0.270843 0.0577264 -0.0849556 -0.994711 -0.988664 -0.150133 -0.00190787 0.497313 -0.801398 0.332327 -0.175197 0.114474 0.977856 0.801448 0.586982 0.114599 -0.276792 0.703296 -0.654798 -0.500594 -0.515163 -0.69571 0.331933 0.899681 -0.283538 0.354783 0.911621 0.207549 0.343271 -0.730675 0.590152 -0.469937 0.881719 0.0415991 -0.336854 0.287841 -0.89648 0.412046 -0.909459 -0.0557006 -0.47351 -0.749168 0.46318 0.611216 0.421817 -0.66969 -0.401231 0.196652 0.894618 -0.560493 -0.0393254 0.827225 0.67394 -0.464162 0.574768 0.464629 0.183622 0.866258 -0.674499 -0.547908 -0.494821 0.763568 -0.216941 -0.608195 0.335548 0.245746 0.909404 -0.159863 -0.514302 -0.842578 0.428441 -0.685668 -0.588471 -0.382662 -0.802001 0.458655 0.527837 -0.663414 0.530348 -0.673574 0.681672 -0.285695 -0.537382 -0.393931 0.745681 0.391681 -0.893454 0.219831 0.632501 0.716944 0.293145 -0.176718 0.253894 0.950951 0.668206 -0.333775 0.664903 0.777116 -0.294601 0.556148 -0.471801 0.0342147 0.881041 0.932924 0.129312 -0.336053 0.155807 0.423913 -0.892201 0.143643 0.983316 0.111611 -0.269615 -0.00688618 0.962943 -0.812282 0.435491 -0.388002 -0.177448 0.983351 -0.0391524 -0.770542 -0.600268 -0.214344 -0.782074 0.221884 0.582347 -0.16825 -0.935032 0.3121 0.16151 -0.577161 0.800499 0.0352598 0.408545 0.912057 -0.793271 -0.176941 -0.582592 -0.12625 0.985706 0.111558 0.323465 -0.240264 0.915229 0.190191 0.546597 -0.815511 0.598085 0.790852 -0.129798 -0.584896 0.793114 -0.169904 -0.256694 0.60294 0.755362 0.328201 -0.190173 0.925267 0.255119 0.90327 0.344988 -0.0137073 -0.981364 -0.191667 -0.889688 0.41337 0.193857 0.719981 0.681392 -0.131654 0.997206 -0.0599156 0.0446038 -0.694705 -0.500299 -0.516803 -0.885281 0.125397 0.447831 0.48809 -0.373798 -0.788697 -0.860694 -0.312126 0.402222 0.902128 0.181956 -0.391225 0.793064 -0.41205 0.448625 -0.258034 -0.607989 0.750844 0.797094 -0.0293743 -0.603141 0.877119 0.290693 0.382308 -0.259082 -0.597097 -0.759178 -0.747784 0.0490195 -0.66213 0.370864 0.924105 0.0921406 0.721056 -0.391123 0.571928 0.380808 -0.911783 0.153745 0.925919 0.206141 -0.316511 -0.211351 0.928481 0.305376 0.0203215 -0.439264 -0.898128 -0.487894 0.291309 -0.82286 -0.78091 -0.295908 -0.550108 0.691484 0.504973 -0.516577 0.0408361 -0.839728 -0.541469 -0.180858 0.510509 -0.840637 0.259901 -0.691253 0.674256 -0.924341 -0.338046 -0.176973 0.765078 0.301383 0.569055 0.673668 0.583622 -0.453384 -0.453734 0.12562 -0.882238 0.165303 0.913403 -0.37198 0.896989 0.231775 -0.376418 0.731686 -0.681628 -0.00443764 0.831569 0.226661 0.507068 -0.439056 -0.689121 0.576491 -0.756333 0.555479 -0.345548 0.254884 0.530532 -0.808436 0.957647 -0.0327831 -0.286072 -0.619776 -0.770214 -0.150492 -0.281856 -0.852368 -0.440484 -0.105846 0.638909 -0.761966 -0.401041 -0.868951 0.289982 -0.985175 -0.166687 0.0405739 -0.781294 0.613685 -0.113885 -0.431081 -0.348006 -0.832503 -0.0333605 -0.856549 0.514987 -0.442953 -0.143111 0.885049 0.349973 -0.936635 0.0153078 0.632905 0.109649 -0.766426 0.00500042 -0.668313 -0.743863 -0.627904 -0.777963 0.0225614 -0.599252 0.800432 0.0143207 -0.672448 -0.384565 0.632394 0.0128628 0.973146 0.229828 0.544645 0.307608 0.780217 0.258475 -0.64842 0.71606 -0.28617 -0.956029 -0.0641567 0.141545 -0.98739 -0.0708922 0.945872 0.31932 -0.0579777 0.961094 -0.228705 -0.154897 0.333111 0.940345 -0.069202 0.37503 0.104097 0.92115 0.573652 0.0156921 -0.818949 0.802371 -0.110157 0.586572 -0.142913 0.0857263 -0.986016 -0.333492 0.342795 0.878223 0.653203 0.747129 0.122977 -0.40291 -0.531338 0.745214 -0.894485 0.446955 -0.0112892 0.993113 -0.106379 -0.0490854 -0.02851 0.514553 0.856985 0.186661 0.982424 -0.000218569 -0.418905 -0.818137 -0.393917 0.215171 0.467873 -0.857203 -0.274613 -0.155478 0.948901 0.0145498 -0.14474 -0.989363 -0.895864 -0.273817 -0.349931 0.174048 0.23039 -0.957407 -0.384096 0.92011 -0.076606 -0.197248 0.529163 0.825276 0.935416 -0.350195 -0.0485819 0.136834 -0.388286 0.911324 -0.117035 0.657791 -0.744052 -0.824398 -0.411389 -0.388752 0.952562 0.123992 -0.27794 -0.0484753 -0.00955978 0.998779 -0.225 0.85577 0.465868 0.0670278 -0.175393 0.982214 0.068833 -0.738386 0.670857 0.741567 0.0137792 -0.670738 -0.116306 0.646023 -0.754405 -0.66406 -0.541747 -0.515301 0.898698 0.111195 0.424237 0.410812 -0.236352 -0.880552 -0.465343 -0.184579 0.865671 0.0567097 -0.0676542 0.996096 0.508645 -0.166324 -0.844758 0.310866 -0.943737 -0.112798 0.926043 0.206986 -0.315596 0.456745 0.643617 0.614118 0.83755 -0.182619 -0.514937 0.842718 0.488392 0.226492 0.00516871 0.671012 0.741429 0.771827 -0.522818 -0.361861 -0.964704 -0.260049 0.041479 0.0531125 -0.997378 0.0491646 0.0132476 0.24173 -0.970253 -0.929047 0.311972 -0.19886 -0.708895 -0.577223 -0.405316 0.21772 0.328152 0.919192 -0.00974331 -0.993303 0.115124 0.88858 0.458443 -0.0160035 -0.374923 0.890862 -0.256511 0.895031 0.43878 0.0799497 0.287856 -0.769459 -0.570151 0.700809 0.679623 -0.216747 0.767661 -0.107659 0.631748 0.828895 -0.00547369 0.559377 -0.368348 -0.862839 0.346164 -0.261315 -0.282474 -0.922997 -0.578341 0.48706 0.654441 0.347728 -0.296756 0.889394 0.434673 -0.629254 0.644281 -0.642338 0.739307 0.202056 0.460113 0.40174 0.791771 -0.403846 -0.60363 0.687415 -0.83707 0.300563 -0.457139 -0.66246 0.355917 0.659144 0.747576 0.322297 -0.580736 -0.817317 0.563248 0.121428 -0.660684 0.527299 -0.534277 0.761147 0.646571 -0.0509932 -0.847967 -0.23382 -0.475689 0.363949 0.584334 -0.725324 -0.10886 0.835605 -0.538437 -0.21577 -0.771352 -0.598715 -0.464088 -0.33502 0.81999 -0.213871 -0.935034 -0.28279 0.356051 -0.354714 -0.864526 0.424008 -0.471709 0.773116 0.569923 0.58032 -0.581736 0.767945 0.236171 -0.595386 0.568817 0.708709 0.417347 0.803199 -0.589327 0.0869769 -0.219993 0.06917 -0.973046 -0.571034 -0.655122 -0.494707 0.979699 -0.195804 -0.0430269 -0.671916 0.279996 0.685661 -0.948009 0.169834 -0.269136 -0.276093 -0.110162 -0.954797 -0.13244 -0.990775 -0.0287266 -0.675819 -0.616373 0.40417 0.62256 0.176373 0.762438 0.974179 -0.225766 -0.00224857 -0.37174 0.191948 0.908276 0.0283575 0.301706 -0.952979 -0.113515 0.945181 -0.306183 -0.37447 0.190031 -0.907557 -0.260955 -0.75515 -0.601374 -0.901734 -0.370843 0.222152 -0.981687 0.00795466 -0.190337 -0.997373 -0.0719893 0.0079983 -0.135046 0.161742 -0.977549 -0.245504 -0.324977 0.9133 0.647232 -0.76229 -0.00221995 0.228674 0.947864 -0.221952 0.99326 -0.109568 -0.0378163 -0.267014 0.854592 0.445395 -0.264895 0.709839 0.652656 0.915241 0.378804 0.137265 -0.969837 0.186833 -0.156558 -0.353281 -0.385787 0.852268 0.137847 0.548768 -0.824531 -0.839469 -0.323321 -0.436755 0.762748 0.465588 -0.448824 -0.968229 0.131137 0.21292 -0.896265 0.33229 -0.293754 -0.287644 0.358219 0.888223 0.413765 -0.631348 -0.655895 0.813388 -0.52446 0.251679 0.985068 -0.0817005 -0.151547 -0.0471258 -0.944971 -0.323742 0.102298 -0.0841396 -0.991189 0.269693 0.0236377 -0.962656 0.045639 0.0568993 0.997336 -0.976394 0.153233 0.152231 0.153914 0.805448 0.572332 0.193273 0.849626 -0.490695 0.909869 0.323363 0.259951 -0.53189 0.700561 0.475718 0.376954 -0.125802 -0.917649 -0.0299422 0.425772 -0.904335 -0.469993 0.532868 0.703675 -0.721362 0.613956 -0.320461 0.969032 0.21522 -0.121066 -0.205673 -0.755499 -0.622028 0.855475 -0.107669 -0.506527 0.792654 -0.420902 0.441069 -0.657562 0.648833 -0.382921 -0.206033 -0.94645 -0.248562 0.344821 -0.694017 0.632012 -0.0628212 -0.313233 0.947596 -0.0510076 -0.998686 0.00502758 0.358889 -0.484475 0.797799 -0.964048 -0.265379 0.013648 0.682438 0.0766078 -0.726918 -0.153399 0.84985 0.504206 0.236977 -0.467623 -0.851569 0.143986 -0.914887 0.377161 -0.86043 0.23432 -0.452497 0.285457 0.840356 -0.460778 0.953367 0.283697 -0.102989 -0.69114 -0.627042 -0.359365 -0.928784 -0.292971 -0.226999 -0.00657727 -0.516542 -0.856237 -0.985573 -0.0617957 -0.157566 -0.926096 -0.347363 0.147262 -0.865107 -0.256481 0.431053 -0.44719 0.888691 -0.101236 0.475064 0.418773 -0.773914 0.590069 -0.268736 -0.761314 0.771084 -0.382553 0.509002 0.262656 -0.935319 -0.237046 -0.767633 -0.0640338 0.637683 -0.583149 0.806268 0.0993466 0.357071 -0.461921 0.811867 -0.190977 0.815062 0.546994 -0.983767 0.118719 -0.134566 0.980617 -0.0926436 0.172648 -0.278314 0.200067 0.939422 -0.972342 0.22737 -0.0534272 -0.330563 0.131004 0.934648 0.427078 0.308529 0.84995 -0.441465 -0.884187 0.152716 0.676461 -0.688032 -0.262704 -0.2417 0.404228 0.882145 -0.52874 -0.80851 -0.25835 0.140484 -0.989903 -0.0188636 -0.595317 0.159789 -0.787442 0.973831 0.104588 -0.201779 0.81523 -0.10565 0.56942 -0.117319 0.841287 0.527705 -0.320648 -0.822486 -0.469788 0.340065 -0.938347 -0.0621314 -0.201367 -0.487235 0.849737 0.510391 0.845432 -0.157308 -0.111423 -0.554216 -0.824882 0.551046 0.458142 0.697463 -0.662321 0.738211 -0.127968 0.860885 0.472159 -0.189588 0.575215 -0.722611 0.383354 -0.884686 -0.375824 0.27584 -0.441322 0.746416 -0.498094 -0.363209 0.308779 0.879053 0.624828 0.773835 0.103778 0.713189 -0.617475 -0.331792 0.662223 0.182702 0.726692 -0.58665 -0.211416 -0.781758 0.393575 -0.747019 0.535781 -0.171506 0.670066 0.722217 -0.809814 0.227764 0.540671 0.373529 0.63063 0.68028 0.155378 -0.513144 0.844121 -0.947622 -0.289017 0.135951 0.983586 -0.107201 0.145145 0.785307 -0.399804 0.472705 -0.161807 -0.82607 0.53984 -0.473523 0.685302 -0.553297 0.44605 -0.706515 0.549433 -0.871784 -0.441141 -0.213042 0.859375 0.460223 -0.222865 -0.588253 0.357067 0.725576 0.271169 -0.94298 0.193021 -0.105847 0.0829919 -0.990913 -0.694228 0.709159 -0.123051 0.420223 -0.519476 0.744014 -0.271954 0.816109 0.509908 0.373993 -0.547 -0.748946 0.67588 -0.390615 0.624985 -0.806093 -0.47587 0.351798 0.562118 -0.622874 0.544106 0.684376 -0.516461 -0.514682 0.653915 0.696256 -0.296011 0.704993 -0.653599 0.275306 0.545617 0.475198 -0.690282 -0.884935 -0.344733 0.313129 -0.655333 0.581787 -0.481729 0.507907 0.00142202 0.861411 0.197334 -0.86276 0.465514 -0.310573 -0.864182 -0.395896 -0.605132 -0.457579 -0.651488 0.100219 0.987562 -0.121147 -0.492854 0.160828 -0.855119 0.452332 -0.747005 0.487216 0.964088 -0.192865 0.182585 0.685776 -0.123947 -0.717181 -0.712212 0.625783 0.318042 0.424227 -0.0288286 0.905097 0.974789 -0.204623 0.0889722 -0.409789 0.803583 -0.431657 -0.859035 -0.45106 0.24208 0.869278 0.328577 0.369316 -0.643761 0.102611 -0.758315 0.301054 -0.193864 -0.933693 0.337805 -0.513858 0.788567 -0.0434161 -0.497768 0.866223 -0.788043 -0.61511 0.0250638 0.547088 0.767343 0.334485 0.672465 0.531059 -0.515526 -0.0609373 0.483652 0.873137 -0.671623 0.708472 0.216774 0.167074 -0.91499 -0.367261 -0.686996 -0.00128735 -0.72666 -0.889569 -0.32526 -0.320739 0.380467 0.725012 0.57411 -0.861029 0.507684 -0.0297693 -0.754025 -0.0378422 0.655755 0.325052 0.499627 -0.802941 -0.662817 0.675496 -0.323077 -0.840123 -0.464863 0.279456 0.598336 0.625911 0.500229 0.827132 0.501405 0.253862 -0.588505 0.806264 -0.0600059 -0.132498 0.976138 0.172041 -0.632266 0.526556 -0.568312 0.315985 0.940958 0.121458 -0.611223 0.742207 0.274837 0.884831 0.11354 -0.451865 -0.779369 -0.425345 -0.460071 -0.242041 0.695332 0.676705 0.479633 0.532912 0.697106 -0.510562 0.781066 -0.35953 -0.296505 -0.239629 -0.92448 -0.199409 -0.963649 -0.177814 0.0786582 0.748536 -0.658412 -0.654934 0.376689 -0.655108 -0.771093 -0.61669 0.158458 0.606996 0.144564 -0.781446 -0.832658 0.46095 0.306929 -0.381377 -0.204489 0.901519 0.451281 -0.665438 0.59459 0.642003 -0.471427 0.604639 0.175736 0.940293 0.29149 -0.