# vtk DataFile Version 4.0
Generated by libgran
ASCII
DATASET POLYDATA
POINTS 1686 FLOAT
-31.308 1.20251 6.60801 -30.205 0.780281 8.13313 -31.686 0.965784 4.88012 -30.9407 2.16698 5.97692 -32.368 0.501037 9.07262 -32.0916 1.28285 3.68785 -31.146 0.178342 12.8269 -31.3168 -1.42081 13.5553 -31.3347 0.811385 11.6729 -31.0025 -0.399745 10.3983 -30.6761 1.30502 10.3517 -29.8063 1.37335 9.37319 -31.5443 -2.6243 16.3181 -30.5265 -2.52505 15.4681 -30.4183 -1.39376 15.3159 -29.5347 0.0184535 14.7691 -28.8648 0.350292 15.4334 -28.8759 0.730428 13.9663 -32.912 -3.44311 14.2572 -35.1798 -3.5237 15.4417 -33.9761 -3.29922 14.9233 -34.41 -3.2606 16.617 -35.9242 -4.00285 14.4431 -33.9453 -3.51627 17.7066 -34.0113 -2.07733 17.9549 -34.2931 -1.51858 18.9862 -33.0126 -1.56055 19.3148 -33.0167 -2.90981 22.049 -33.7231 -1.72261 22.7419 -33.088 -1.93271 21.0145 -33.2753 -4.19504 22.2713 -34.5745 -5.23386 21.5555 -33.405 -1.81844 24.3925 -32.3741 -2.62827 19.7975 -33.9621 -5.41562 19.4968 -34.8998 -6.2925 18.8711 -32.7792 -5.98971 19.2986 -31.7321 -6.35118 19.2486 -31.1312 -5.69463 20.8246 -31.8493 -5.34307 22.3752 -30.4684 -4.49884 21.3828 -34.4885 -7.77385 19.514 -26.8197 -11.631 21.4012 -27.6267 -10.842 20.6982 -28.9848 -11.5375 20.3122 -26.5522 -11.4809 23.4023 -27.9756 -11.4056 23.6665 -30.517 -12.2651 20.107 -31.8473 -8.99293 18.2326 -30.6861 -8.37863 17.7366 -31.5326 -10.277 18.3749 -33.0414 -9.96771 18.7185 -31.0011 -11.6037 19.1226 -33.8332 -9.18624 19.8052 -29.7471 -9.42731 16.5305 -29.6978 -10.2914 15.0701 -29.046 -12.6267 15.1079 -28.5382 -12.1137 13.9909 -29.705 -11.2991 14.1898 -27.9019 -12.4455 16.391 -26.6665 -11.755 14.0132 -26.379 -12.4685 16.9938 -26.3395 -13.5917 16.8511 -25.4587 -9.05573 11.2396 -26.4387 -9.382 10.7281 -26.8362 -8.23486 11.8896 -24.2323 -9.24269 11.718 -23.9622 -9.3996 10.0917 -24.2972 -9.65608 13.5349 -25.2149 -10.7019 14.3797 -36.3052 14.3793 2.33147 -36.0445 13.8424 0.439041 -35.7827 12.884 0.325434 -35.6889 15.068 3.63164 -35.3193 15.029 4.66411 -34.464 15.5139 4.84645 -34.8724 14.9371 5.55396 -38.8548 12.6633 -0.696048 -39.6427 13.2137 -1.61389 -38.0731 14.1811 -0.963398 -38.2543 12.4327 0.210619 -38.757 10.8792 -0.509543 -39.3101 9.68579 -0.20103 -39.9089 8.43406 0.340505 -43.9446 8.44133 -1.23765 -43.7749 7.62501 -2.06386 -44.5581 9.76074 -2.11025 -43.9185 9.87104 0.159133 -40.6985 7.78215 0.0283489 -39.4356 6.97051 -0.561675 -39.5055 7.26477 -1.8529 -38.9623 6.39447 -2.35682 -39.0875 5.55769 -1.01993 -39.3925 8.78647 -2.72989 -40.7731 7.62623 -2.66466 -39.2479 9.21749 -3.98958 -38.8761 4.14827 -1.52581 -39.5766 3.98572 -0.0735644 -38.8358 5.899 -8.85622 -37.8296 5.76607 -9.71528 -38.6824 4.19036 -9.63219 -39.2946 7.42004 -10.5488 -39.8682 6.79177 -11.1967 -40.4928 7.47184 -9.53834 -40.8499 6.29431 -12.0482 -41.0664 6.84356 -10.1863 -39.4843 2.57377 -9.54748 -40.5026 7.75653 -7.38653 -41.012 7.69904 -8.62494 -40.806 7.67873 -6.2 -41.3418 7.4048 -5.25015 -42.198 6.94963 -4.68864 -41.4716 6.85666 -3.91354 -43.3372 8.19555 -5.09573 -42.1838 8.03492 -2.85676 -36.6254 2.4671 -11.6237 -35.2416 2.84392 -12.5549 -35.8567 1.48549 -11.2723 -37.1266 3.6481 -11.2741 -37.5724 4.83786 -11.71 -39.1899 4.54934 -11.8582 -36.2417 -0.130774 -10.943 -40.1249 3.99237 -12.5409 -39.0771 -0.918408 -8.593 -38.5437 0.323563 -8.66828 -39.7372 0.908064 -9.00933 -37.448 1.56011 -8.88131 -26.0785 12.7849 19.4318 -26.4716 13.8373 20.1432 -24.8909 13.7345 19.9052 -27.3707 12.2494 18.1979 -29.2243 13.054 19.1879 -30.0358 10.7165 17.4957 -29.8184 12.1793 16.3501 -30.8293 9.72365 17.336 -30.4973 8.95157 18.0216 -29.0171 11.8943 15.8239 -32.5339 9.52649 17.3507 -31.2623 9.74491 15.9314 -33.2766 9.44114 18.8632 -26.6547 4.53929 12.7152 -26.4375 3.42318 12.7155 -26.9959 5.77999 13.0503 -28.4968 5.00433 13.2251 -27.7811 2.73318 13.6817 -27.6625 2.23341 12.27 -28.0616 2.14989 15.1105 -27.4069 1.38744 11.1424 -27.218 1.52578 10.0941 -30.0768 9.18276 15.1631 -31.136 9.14581 14.3602 -28.7397 9.1572 14.7605 -30.992 7.59669 13.4886 -32.1602 8.93901 13.1814 -31.4437 6.32484 13.4718 -30.0004 5.89335 13.3964 -32.7282 6.19699 5.17265 -33.5214 5.56344 4.31398 -32.5636 7.08553 5.93558 -31.8684 5.53999 6.49117 -35.1545 4.56118 4.58214 -33.1559 3.50122 6.12743 -36.3023 4.82106 3.90398 -35.849 4.93893 2.46342 -38.6758 3.06273 2.10736 -37.0809 2.92357 2.45279 -39.818 3.34719 1.49116 -39.7313 2.85031 -0.275284 -36.1525 4.5543 1.54644 -36.5602 2.30671 3.77588 -32.2322 5.80858 11.1918 -31.5924 8.12935 10.1995 -33.0476 8.36824 11.1436 -33.3658 8.70971 12.1476 -34.1233 7.63675 12.508 -32.5396 10.3154 12.4254 -34.5642 6.31992 13.1078 -33.8148 2.96805 8.67604 -33.5424 3.00404 9.977 -32.6943 3.1639 7.04769 -33.1468 3.48479 11.2278 -26.0152 23.3153 27.8169 -26.553 22.0673 28.2851 -26.1005 22.8235 29.3764 -25.7236 23.4954 26.5321 -25.9996 24.9738 27.181 -26.6592 26.2145 27.2726 -23.2048 23.2978 27.797 -22.9121 23.4522 30.1188 -23.7294 24.1117 31.2888 -22.6301 23.2287 28.8387 -22.1981 22.9022 27.8691 -23.8043 25.179 28.3912 -23.7158 24.2114 32.5219 -25.4664 27.3456 32.7264 -25.0433 28.2772 33.5784 -25.9995 29.2134 32.8596 -25.8293 26.749 31.8654 -24.927 25.9798 31.6033 -23.4322 28.7062 34.6193 -25.7031 25.1849 30.9018 -21.0082 25.4892 34.3584 -21.2852 24.1958 34.4953 -20.7973 26.5696 34.4025 -19.7464 27.0986 35.2532 -20.7339 28.0072 34.867 -18.2344 26.6504 35.9744 -18.3006 27.9127 35.6469 -21.6734 29.0094 34.7722 -19.7332 29.0582 34.3971 -28.1397 23.8088 32.574 -28.4346 26.0712 33.0034 -30.6443 25.1142 34.9992 -30.5951 24.0099 34.1045 -30.2015 23.3681 32.3577 -26.8562 23.4554 32.4872 -32.0685 21.3391 30.3318 -32.6314 22.1991 31.7971 -30.8228 21.0189 29.99 -29.9823 20.6444 29.5984 -32.6863 23.2107 33.0863 -33.6086 22.8707 32.9026 -35.3359 23.5104 32.685 -36.0562 23.5327 31.3658 -35.7187 22.6492 30.873 -36.9038 25.0193 30.5903 -37.4486 24.8151 32.2102 -37.815 25.5821 31.2268 -36.8217 22.7785 32.6689 -37.4583 25.7668 33.8321 -37.491 26.8616 31.9648 -41.3485 26.6429 35.0987 -40.6745 27.7051 34.668 -39.7786 26.8692 34.1797 -38.3805 26.7258 33.927 -41.2168 27.0206 32.9341 -37.2388 26.8482 33.5955 -37.3383 10.6762 21.09 -37.7408 9.71881 21.9196 -38.8312 11.1667 21.6275 -35.9234 10.2004 20.389 -36.7631 11.7076 20.2231 -34.8219 8.69883 20.2865 -33.8833 7.77776 19.6699 -34.4037 7.10944 18.9005 -32.7378 7.10596 19.0781 -34.9907 6.12001 18.2338 -35.296 5.78243 19.5956 -31.069 5.23446 18.8192 -30.5118 6.17428 18.5209 -41.718 12.4528 20.1414 -42.5572 11.9094 21.018 -43.8859 11.7985 20.0871 -41.6867 13.9324 20.3584 -42.9141 13.9178 19.5481 -40.4482 9.64966 18.656 -40.3601 11.2466 19.3051 -40.0738 9.1996 19.6148 -39.6616 8.69946 20.3764 -37.8793 8.64458 19.8524 -39.0092 7.895 21.0139 -30.185 16.3473 21.8534 -31.3364 16.4882 22.5035 -30.2608 16.0766 23.7305 -29.1903 15.6942 21.2026 -30.0675 15.5627 20.1318 -32.2712 17.3454 22.715 -31.8075 18.2749 24.1352 -30.7723 18.8534 25.6667 -34.2724 11.8334 19.0105 -33.4542 11.4224 19.9439 -32.4668 12.2563 19.147 -35.0261 12.8724 18.6624 -36.1817 12.2116 19.3357 -31.3247 12.1694 19.9852 -31.0047 13.1167 19.9968 -29.5852 20.1337 26.1667 -29.7084 18.5783 25.8907 -30.4885 20.2541 28.3092 -31.8252 20.3878 27.1605 -29.5572 17.0277 26.0048 -29.0466 15.8094 26.8587 -31.4053 20.6819 24.8296 -32.4653 20.1028 25.7908 -31.1965 21.9794 25.0319 -32.6733 22.804 24.6939 -34.2948 22.6866 24.7706 -34.1837 24.0903 23.1259 -5.73644 23.4404 37.714 -4.74391 23.3741 37.8164 -6.99555 23.0101 37.7859 -5.24073 22.6779 37.2983 -7.74493 24.1464 38.8682 -8.57856 22.7118 38.2866 -8.60376 23.796 38.4946 -8.59085 24.6664 38.9868 -4.53077 21.6591 37.5144 -3.4596 22.309 36.8654 -4.14496 19.9638 37.5884 -9.49578 21.8599 37.2442 -5.19806 18.1995 38.9479 -5.37496 19.0596 37.6855 -5.85467 16.9338 39.1825 -6.15817 15.905 39.5074 -3.58806 19.3452 38.5348 -0.807223 23.5906 37.7964 -1.95791 23.7114 37.1411 -2.12997 22.49 37.0181 0.234363 25.146 37.6584 -1.98997 25.358 36.8221 -2.30563 21.2506 36.8733 -2.15159 27.1186 37.229 0.543767 29.5308 37.4754 1.42148 28.3165 38.151 -2.25967 28.775 36.9422 2.37232 27.922 37.2842 -2.96166 28.0786 38.3337 -20.311 31.0428 42.1075 -19.126 30.5235 41.8009 -20.3986 30.9977 43.807 -21.6055 30.562 42.3791 -17.9529 29.2508 44.1965 -18.3355 29.5961 45.7569 -17.4086 28.6224 42.6758 -15.1175 27.7261 40.7402 -15.901 27.5552 41.8008 -14.2238 26.3484 40.5376 -16.9558 27.4644 41.9987 -16.836 26.3006 42.9316 -15.9462 25.8094 42.3349 -13.0379 26.284 41.323 -13.8465 25.8007 41.9669 -16.6973 25.4159 44.2486 -11.1109 22.7178 41.8996 -12.3259 23.0758 42.3107 -10.9713 23.2127 41.0419 -10.1877 22.8317 41.5326 -12.5665 24.0166 43.3996 -12.985 22.974 44.1831 -13.1794 25.4803 43.2638 -10.1752 24.317 40.7312 -14.7854 25.4327 42.7036 -9.87028 26.4124 38.6806 -9.28544 25.2614 38.332 -10.4609 25.9626 40.0489 -10.5317 26.9389 40.2534 -11.4402 26.534 38.7454 -10.3733 26.2836 40.9919 -19.1574 34.3329 39.5203 -19.2377 35.3175 37.8904 -18.1655 34.6911 40.3309 -17.9811 36.2797 40.1278 -17.7086 36.0045 41.0498 -18.2036 36.862 40.9097 -18.1441 37.9883 40.3943 -19.1253 34.9818 36.8372 -19.8435 36.4071 37.3975 -17.1416 37.1968 41.764 -18.1507 39.7699 44.3728 -19.865 39.6343 43.729 -20.0066 40.1454 44.7668 -20.136 38.9613 42.3202 -21.5112 39.0697 43.477 -18.742 38.7296 41.152 -17.0821 38.3231 41.2486 -19.8285 41.7624 46.3362 -18.5729 42.329 45.1598 -19.3806 41.1307 47.417 -20.5734 40.7138 46.0809 -18.4381 42.4778 43.9095 -17.248 43.0711 44.8138 -19.9318 38.6398 48.2229 -21.1648 37.4545 51.1022 -20.3675 38.4978 50.8926 -21.3937 39.3196 51.5806 -19.3739 38.2864 49.7123 -17.7436 39.0162 49.7688 -22.2021 40.1899 51.3969 -16.385 27.4872 38.469 -15.6979 27.2037 37.3666 -15.8065 28.5915 37.2121 -15.4927 25.6518 37.3276 -16.9041 28.9573 36.2384 -14.4406 25.072 38.4701 -12.9466 25.8575 38.6033 -18.2998 28.9516 35.1809 -18.5041 30.1126 34.0207 -17.8331 29.3743 33.9513 -17.5922 30.2984 33.6547 -18.7424 31.1805 35.734 -18.3905 30.5895 36.7679 -21.4091 29.7534 36.7521 -21.8192 30.9976 35.7292 -21.41 33.0609 41.3207 -23.0567 32.4849 41.4047 -20.8399 32.1954 40.4877 -21.2674 32.1554 39.28
[...]
POINT_DATA 1686
FIELD FieldData 1
normals 3 1686 double
-0.340037 0.306401 -0.889097 0.762922 -0.115832 0.636029 -0.0379791 -0.54313 -0.83879 0.707372 0.65807 0.258011 -0.430046 0.838221 0.335329 -0.367573 0.8602 -0.353477 -0.341723 0.91664 -0.207357 -0.512561 -0.682509 0.521021 0.152978 -0.283597 -0.946663 0.179261 -0.927533 -0.327946 0.505635 0.777228 -0.3745 0.364166 -0.708897 -0.604027 -0.454101 -0.794297 0.403589 0.563647 -0.695039 -0.446344 0.671884 0.436248 -0.598548 0.211686 0.975967 0.0517552 -0.458201 0.644128 -0.612496 0.447129 -0.263992 -0.854625 -0.777291 0.604639 -0.173871 -0.916939 0.236264 -0.321561 0.286764 0.460743 -0.83993 -0.147157 0.499358 0.853807 0.172561 -0.715412 -0.677058 0.611834 -0.755026 0.235785 0.545824 0.683916 0.484081 -0.827601 -0.125165 0.547184 0.4529 -0.167134 0.875755 0.599625 -0.772068 0.210619 -0.106784 0.415136 0.903471 0.5283 0.205031 -0.82393 -0.858214 -0.51316 0.0116773 -0.440959 -0.52566 -0.727487 0.424936 -0.510969 0.747221 0.185653 -0.900588 -0.393033 0.793159 -0.112244 0.598582 -0.144565 -0.989126 -0.0270304 0.389685 -0.461842 -0.796773 0.657405 0.100373 0.746823 -0.0564998 0.556169 0.829146 -0.661526 -0.204607 0.72147 0.719376 0.639623 -0.270887 0.555858 -0.492217 0.669884 -0.211965 0.974067 0.0791518 -0.594966 -0.185015 -0.782167 -0.76322 -0.510447 0.396155 0.830641 0.404178 0.382982 -0.59277 0.479436 0.647121 -0.76895 -0.217221 -0.601275 -0.501646 -0.836055 -0.222179 0.6596 -0.221749 -0.718161 0.816349 -0.448018 0.364492 -0.69238 -0.138718 0.708073 -0.284838 -0.878661 0.383174 -0.0994536 0.920181 0.37865 0.279412 -0.826938 -0.487958 -0.230129 -0.0371781 -0.97245 0.436106 -0.357088 0.826014 0.943962 0.15585 -0.29094 -0.222899 0.970481 -0.0921027 0.708065 0.538237 0.457105 0.927754 0.2029 0.313215 0.814768 -0.56119 0.14567 0.775209 0.562039 0.28838 0.89729 0.030832 -0.440363 -0.0827463 -0.29544 -0.951771 -0.480234 0.851703 0.209705 0.329136 -0.217795 0.918823 0.599225 -0.374706 -0.707478 -0.394029 -0.19559 0.898046 -0.523754 -0.850203 -0.0532589 -0.161716 0.150979 0.97522 0.0990094 -0.385916 -0.917206 -0.162741 0.572489 -0.803599 0.778 0.537697 0.324959 -0.408438 -0.576722 0.70751 0.446922 -0.0918388 0.889846 0.855361 0.484884 0.182335 -0.0745503 -0.854888 0.513429 -0.862403 -0.304486 -0.404413 0.707147 0.662864 0.246079 0.675029 0.624259 0.393239 0.17242 -0.929189 -0.326924 -0.725528 -0.264251 0.635437 0.126742 -0.987481 -0.0939009 -0.652777 0.756071 -0.0473113 -0.483038 -0.0602466 -0.873524 0.0392651 0.563345 -0.825289 -0.60447 0.792045 -0.0853265 0.916383 -0.335569 0.218256 -0.346465 0.476073 0.80828 -0.416333 0.770343 -0.482948 0.126861 -0.0999668 -0.98687 0.00166886 -0.936739 0.350026 0.529341 0.751355 -0.394036 -0.851291 -0.408889 -0.328806 -0.384738 -0.320333 -0.865657 0.209749 -0.472687 -0.855904 -0.49077 -0.635235 0.596339 -0.408524 0.807446 0.425605 0.597618 0.674514 -0.433455 -0.255143 -0.901191 -0.350368 -0.425276 0.594769 0.682195 -0.998853 -0.0335054 0.0342155 -0.772943 -0.542977 0.32823 0.0171061 -0.463952 -0.885695 -0.199363 0.0852977 0.976206 -0.546724 -0.715403 0.435076 0.255652 -0.712693 0.653231 -0.253754 -0.770181 -0.585175 -0.559017 0.634891 0.533305 0.0231447 -0.908823 0.416539 -0.879308 0.453652 0.144971 -0.152866 0.360683 0.920076 -0.259891 0.792267 -0.55206 -0.559351 0.817581 0.1367 -0.904315 0.265978 0.33387 0.479552 0.64279 -0.59737 -0.135567 -0.715639 0.685188 0.4031 0.915021 0.0156911 -0.848883 0.274736 -0.451573 -0.768577 -0.56326 0.30336 -0.249488 -0.90062 -0.355864 -0.166422 0.0062932 -0.986034 -0.366322 0.87617 -0.313263 0.899751 0.365801 0.237987 -0.293773 0.950302 -0.103071 0.195891 0.870749 -0.451025 -0.393098 -0.44175 -0.806431 -0.786215 0.610596 -0.09507 0.794493 0.507785 -0.333069 -0.899129 -0.0938049 -0.427513 -0.654128 0.111243 -0.748159 0.0680138 -0.936194 0.34484 0.285423 0.526593 -0.80077 -0.861549 -0.0566424 -0.504504 -0.529571 -0.828718 0.181055 -0.515798 0.811534 -0.274527 -0.843064 -0.140512 0.519133 0.428552 0.0779086 -0.900152 0.100395 0.0551586 0.993417 -0.883813 0.407258 0.230253 -0.666631 -0.708853 0.230499 0.542577 0.833442 0.104811 -0.958368 0.0577738 0.27963 -0.676989 0.0188462 0.735752 -0.558415 -0.480923 -0.675934 0.396472 -0.602132 0.692998 0.814052 -0.365043 -0.451734 -0.625144 0.503383 -0.59649 0.756914 -0.640063 0.13191 -0.30229 -0.677015 -0.671023 0.580206 0.614499 -0.534558 0.446323 -0.872101 -0.20059 -0.721838 0.470213 -0.507789 -0.898004 -0.399756 0.183802 0.54524 -0.831246 0.108366 0.10896 -0.0836326 0.990522 -0.684298 -0.717184 0.131844 0.0555856 0.972168 -0.227595 0.750779 -0.573368 0.327993 -0.94876 -0.285082 0.136323 0.987124 -0.128253 0.0955851 -0.199084 0.544964 -0.814481 0.652391 -0.427094 -0.626081 -0.892698 0.281156 0.352195 0.702249 0.141992 0.697628 -0.249421 0.00329673 -0.96839 0.336048 -0.500174 -0.798058 0.955811 -0.0424672 0.290897 -0.181511 -0.758849 0.625462 0.236005 -0.701972 0.671965 -0.653088 0.596933 0.465991 -0.802024 -0.358036 0.478087 0.483783 0.699505 0.525971 -0.273729 -0.373462 0.88634 0.342456 0.906147 -0.248236 -0.167209 -0.94336 -0.286552 0.594919 -0.0132146 -0.803677 0.867294 0.0227737 0.497275 0.525552 0.209066 -0.824674 -0.471663 0.457978 0.753519 -0.280289 0.703483 -0.653108 -0.818112 -0.544532 -0.184872 -0.36562 0.211712 0.906366 0.571897 -0.523399 -0.631654 0.295854 0.955078 0.0171965 -0.955451 0.285613 0.0744202 0.780931 0.55442 0.287689 0.0755973 -0.847086 -0.526051 -0.741696 -0.187533 0.643987 0.206319 0.623579 -0.754043 0.225687 -0.950061 -0.21552 -0.334569 -0.442087 -0.83224 0.755292 0.287235 0.589093 0.381 -0.887472 -0.259293 0.804166 0.0440887 0.592768 -0.152051 0.980297 -0.126088 -0.743862 0.290846 -0.601729 0.158439 -0.47836 -0.863753 0.80688 0.384888 0.448114 -0.934599 -0.316565 0.162205 0.160014 0.563543 -0.810441 -0.116949 -0.729812 -0.67357 0.0509307 0.516885 0.854539 0.999919 0.0121524 -0.00390381 0.0124124 0.920689 -0.3901 0.512133 -0.460368 0.725107 0.445923 0.801913 0.397603 -0.951918 0.081592 0.295288 0.98826 0.13033 -0.0797277 0.502874 -0.522727 -0.688385 0.849549 -0.212783 -0.48269 0.0435541 -0.994112 0.0992225 0.00562552 -0.110201 -0.993893 0.387993 -0.531593 -0.752908 0.780669 0.169378 0.601555 0.374582 -0.789769 -0.48575 -0.188301 0.0701402 0.979604 0.871122 0.469498 0.143939 -0.0306461 -0.843987 -0.535488 0.133397 0.94147 0.30958 -0.78891 0.601483 0.125851 -0.938401 0.0382657 -0.343423 -0.218137 0.0160189 0.975787 0.119344 -0.867447 0.483004 -0.649401 -0.40227 0.645335 0.10456 0.198082 0.974593 -0.261869 0.965063 -0.0088194 -0.547364 -0.770235 0.327309 -0.114262 0.75364 0.64728 0.585934 0.314459 0.746858 -0.979788 -0.164329 0.11407 -0.305833 0.897885 -0.316652 0.590094 0.0619271 -0.804956 0.807959 -0.205329 0.552307 -0.448357 -0.794855 0.408879 0.333769 0.327803 -0.883823 0.912653 0.286057 -0.291951 0.510185 -0.671291 0.537661 -0.580228 0.776567 0.245517 0.502296 -0.76186 -0.408985 -0.337412 0.745354 -0.574979 0.599183 -0.739658 0.306407 0.339417 -0.181415 -0.922976 -0.859842 -0.486908 0.153597 0.806124 -0.490382 0.331194 0.272914 -0.502525 -0.820357 -0.032414 -0.840101 0.54146 -0.00220139 0.391771 -0.92006 0.559407 0.548052 0.621853 0.0315432 -0.0666959 0.997275 -0.870731 -0.476725 -0.120669 -0.458013 0.365842 -0.810175 -0.984746 0.0782557 0.155404 -0.242666 -0.0928709 -0.965654 0.957159 0.0106943 0.289366 0.00244336 -0.0980064 0.995183 -0.582785 -0.460754 0.669378 0.994957 -0.0393944 0.0922416 0.787415 -0.0154824 -0.616229 -0.342483 -0.765059 0.545335 0.204113 -0.130576 -0.9702 -0.947303 0.01032 -0.320173 0.128298 -0.401329 0.906904 0.790548 -0.522541 0.319351 -0.0866898 -0.65406 -0.751459 0.012499 0.846852 0.531682 0.451207 0.0826847 0.888581 0.583929 0.495739 0.64286 -0.990502 0.136905 0.0127383 -0.172305 -0.274082 0.946145 0.815095 0.559788 0.14919 0.23687 0.902038 -0.360861 -0.918787 0.2413 0.312419 0.327072 -0.646693 0.689066 0.647054 0.30066 0.70066 0.603255 0.784654 -0.142836 0.48003 -0.770832 -0.418795 0.475539 -0.453665 0.753692 -0.861151 -0.319897 -0.395077 -0.328797 -0.779689 0.532895 0.83935 -0.438688 0.321004 0.83884 0.544212 0.0134436 -0.221069 -0.0348544 0.974635 -0.629963 0.753303 0.188898 -0.846905 0.0713382 -0.526937 -0.774558 -0.188724 0.603692 -0.467207 -0.708437 -0.528994 -0.496816 -0.696207 -0.518141 0.495709 -0.762536 -0.415705 -0.762294 0.265908 0.590085 0.992526 -0.0663305 0.102435 0.0129146 0.870375 0.492221 -0.820725 -0.564277 -0.0894581 -0.84592 0.519961 0.118573 -0.858835 -0.350414 -0.373647 -0.282569 -0.952488 0.11367 0.788599 -0.302527 -0.53534 0.668378 -0.742767 -0.0396068 -0.0964871 -0.287608 -0.952876 0.281419 -0.920915 0.269665 0.10452 -0.0607868 -0.992663 -0.938027 -0.344784 -0.0350504 0.634525 -0.683976 0.359938 -0.111474 0.124162 0.98598 0.781709 0.617098 0.090119 -0.368981 0.73784 -0.565195 -0.541035 -0.483515 -0.688109 0.259878 0.938321 -0.228075 0.33693 0.908764 0.246226 0.365371 -0.755899 0.54325 -0.498556 0.851837 0.160671 -0.438192 0.330454 -0.835935 0.439524 -0.883809 -0.160311 -0.39048 -0.804545 0.447474 0.511309 0.489319 -0.706491 -0.311514 0.108201 0.944061 -0.565465 -0.0732047 0.821517 0.619586 -0.592487 0.514851 0.477925 0.0280717 0.877952 -0.728961 -0.407674 -0.549926 0.742717 -0.201187 -0.638667 0.360111 0.144064 0.921719 -0.198408 -0.427265 -0.882088 0.379866 -0.650491 -0.657696 -0.403609 -0.821452 0.402886 0.513861 -0.727215 0.455089 -0.651202 0.730697 -0.204981 -0.531469 -0.433114 0.727979 0.358393 -0.924298 0.131256 0.672028 0.66276 0.330343 -0.136586 0.179524 0.974226 0.670164 -0.451636 0.588987 0.78362 -0.380998 0.490694 -0.431366 -0.0229479 0.901885 0.923239 0.113949 -0.36694 0.139619 0.494946 -0.857633 0.190737 0.963677 0.186941 -0.227798 -0.0788672 0.970509 -0.803645 0.500015 -0.322706 -0.127195 0.990282 0.0562457 -0.802356 -0.547568 -0.237476 -0.749092 0.205461 0.629799 -0.164245 -0.945491 0.281195 0.158473 -0.655305 0.738554 0.0876486 0.321004 0.943013 -0.820858 -0.08387 -0.56494 -0.0708245 0.976309 0.20446 0.312554 -0.37288 0.873653 0.232231 0.61172 -0.756219 0.679373 0.73108 -0.0630465 -0.494988 0.857532 -0.140096 -0.222536 0.582354 0.781884 0.272451 -0.275177 0.92198 0.332002 0.851127 0.406641 -0.119769 -0.947333 -0.29701 -0.837987 0.477957 0.263316 0.78957 0.609918 -0.0676615 0.979258 -0.195761 0.0522633 -0.735039 -0.331361 -0.591538 -0.87666 0.179767 0.446264 0.464077 -0.341653 -0.817255 -0.911197 -0.233297 0.339548 0.9299 0.109903 -0.35101 0.730022 -0.516385 0.447678 -0.435084 -0.660025 0.612429 0.82052 -0.0934543 -0.563926 0.883058 0.0282927 0.46841 -0.30983 -0.388603 -0.867752 -0.685666 0.242203 -0.686439 0.504386 0.835536 0.217886 0.577254 -0.623828 0.526893 0.176968 -0.984183 -0.00817675 0.974205 0.0591394 -0.217779 -0.0519818 0.880998 0.470256 0.0194116 -0.270486 -0.962528 -0.344767 0.528659 -0.775665 -0.756439 -0.010754 -0.653976 0.725634 0.495849 -0.477062 -0.0385299 -0.779396 -0.625345 -0.147106 0.608457 -0.779834 0.243686 -0.772497 0.586401 -0.950533 -0.242681 -0.193888 0.808457 0.192755 0.556095 0.685519 0.592666 -0.42286 -0.445169 0.236953 -0.863526 0.240923 0.924084 -0.296691 0.911849 0.185811 -0.366068 0.670925 -0.738272 -0.0693767 0.850032 0.104668 0.516227 -0.498089 -0.695659 0.517655 -0.704961 0.655819 -0.270059 0.294935 0.588377 -0.752879 0.945102 -0.0992922 -0.311324 -0.701592 -0.67532 -0.227403 -0.37507 -0.766221 -0.521755 -0.0524236 0.726204 -0.685477 -0.492436 -0.848359 0.194405 -0.997857 -0.0545949 0.0360751 -0.71457 0.699156 -0.0238841 -0.47955 -0.207219 -0.852697 -0.114013 -0.900642 0.419338 -0.440198 -0.194748 0.876527 0.250163 -0.963344 -0.0968814 0.627468 0.129025 -0.767878 -0.0779747 -0.578363 -0.812045 -0.705443 -0.707389 -0.044168 -0.633495 0.773716 0.00685802 -0.695939 -0.440154 0.567392 -0.0296524 0.974799 0.221105 0.425145 0.371592 0.825331 0.241814 -0.608971 0.755434 -0.183331 -0.980563 -0.069897 0.256091 -0.964404 -0.065897 0.927468 0.364601 -0.0828758 0.990074 -0.112062 -0.0848249 0.224747 0.973997 -0.0286231 0.2912 0.123999 0.948592 0.614566 0.00693858 -0.788835 0.773516 0.0610488 0.63083 -0.0823132 0.0937797 -0.992184 -0.432229 0.279429 0.857378 0.536389 0.840574 0.075652 -0.372421 -0.443217 0.81539 -0.858173 0.512644 0.0271087 0.964936 -0.219057 -0.144614 0.0300546 0.483583 0.874782 0.260308 0.965086 0.0291242 -0.545886 -0.764025 -0.34391 0.230254 0.481504 -0.845658 -0.263808 -0.169102 0.949637 -0.0190467 -0.109166 -0.993841 -0.918966 -0.192182 -0.344336 0.177004 0.253736 -0.95094 -0.313121 0.948895 -0.039423 -0.143928 0.513962 0.845652 0.898677 -0.429578 -0.0885592 0.15254 -0.416977 0.896026 -0.134248 0.622338 -0.77115 -0.798904 -0.46302 -0.383882 0.950437 0.155936 -0.268988 -0.0640408 0.0271967 0.997577 -0.284434 0.858136 0.427434 0.0589851 -0.133774 0.989255 0.0915748 -0.701695 0.706567 0.689295 -0.054465 -0.72243 -0.124057 0.611584 -0.781393 -0.438509 -0.667774 -0.601488 0.782291 0.287769 0.552459 0.595699 -0.141773 -0.790596 -0.558131 -0.281154 0.780668 -0.0590353 -0.122175 0.990751 0.412232 -0.170485 -0.894986 0.39092 -0.9145 -0.104264 0.922263 0.155423 -0.353943 0.514733 0.621672 0.590402 0.800146 -0.223148 -0.556751 0.881575 0.428988 0.196965 0.0814292 0.652136 0.753716 0.719737 -0.561956 -0.407657 -0.976418 -0.208232 0.0569836 0.000410566 -0.999011 0.0444694 0.0180466 0.204084 -0.978787 -0.913353 0.351739 -0.205099 -0.675879 -0.623991 -0.392203 0.36652 0.309996 0.877249 -0.051953 -0.991564 0.118747 0.813455 0.578958 0.0556563 -0.473181 0.83024 -0.294619 0.812494 0.558634 0.16668 0.451882 -0.728299 -0.515153 0.617137 0.772568 -0.149267 0.724013 -0.00808258 0.689739 0.765472 0.134369 0.629284 -0.28275 -0.887649 0.3635 -0.132963 -0.359024 -0.923809 -0.702796 0.406516 0.5838 0.305734 -0.220162 0.926313 0.46403 -0.54062 0.701716 -0.751553 0.651884 0.101068 0.325073 0.497765 0.804088 -0.383552 -0.620907 0.683639 -0.822249 0.160643 -0.545985 -0.763619 0.29098 0.576382 0.748595 0.403349 -0.526227 -0.892626 0.450088 0.0253077 -0.672915 0.405514 -0.618663 0.668154 0.743703 -0.0217967 -0.760364 -0.371023 -0.533094 0.332071 0.615976 -0.714354 -0.17077 0.787567 -0.592094 -0.00991743 -0.799271 -0.600889 -0.48532 -0.409226 0.772657 -0.0134069 -0.959177 -0.282489 0.503173 -0.28839 -0.814646 0.412762 -0.388531 0.823815 0.516579 0.670787 -0.532157 0.772791 0.367509 -0.517428 0.391162 0.797759 0.458882 0.863356 -0.469414 0.185114 -0.172491 -0.0613958 -0.983096 -0.42061 -0.736328 -0.530008 0.998606 -0.0392109 0.0353426 -0.739406 0.257006 0.622276 -0.94548 0.0132402 -0.325412 -0.206074 -0.243766 -0.947688 0.0352707 -0.998544 -0.0408167 -0.59225 -0.724386 0.352853 0.534315 0.260368 0.804186 0.995895 -0.0657077 0.0622559 -0.456893 0.113067 0.882306 0.0413203 0.309952 -0.949854 -0.249182 0.915397 -0.316159 -0.33929 0.132184 -0.931348 -0.0901077 -0.783214 -0.615188 -0.842451 -0.515176 0.157703 -0.954199 -0.154596 -0.256134 -0.969398 -0.234794 -0.0716954 -0.0825981 0.151055 -0.985068 -0.259627 -0.373613 0.890509 0.761894 -0.645864 0.0487654 0.0864486 0.975522 -0.202199 0.998136 0.05285 0.0305286 -0.431542 0.79131 0.433129 -0.187438 0.717288 0.671093 0.931624 0.360229 0.0480903 -0.976314 0.206344 -0.0650595 -0.295529 -0.375098 0.878615 0.0786224 0.594219 -0.800452 -0.877374 -0.288086 -0.383695 0.730531 0.483675 -0.482061 -0.957101 0.115606 0.265693 -0.670547 0.678066 -0.300987 -0.422665 0.149708 0.893836 0.373712 -0.537962 -0.755603 0.557714 -0.810793 0.177676 0.940051 -0.339468 -0.0326441 -0.159428 -0.876003 -0.455194 0.202288 0.0203839 -0.979114 0.397897 -0.0167142 -0.917278 0.0941178 0.0104687 0.995506 -0.967666 0.144889 0.206468 0.179011 0.778671 0.601354 0.169493 0.870631 -0.461816 0.920345 0.318252 0.227333 -0.510978 0.658576 0.55243 0.322767 -0.0582686 -0.944683 -0.0894577 0.48443 -0.870244 -0.435971 0.475682 0.763973 -0.820677 0.5274 -0.219859 0.957771 0.236877 -0.162983 -0.169124 -0.773753 -0.610495 0.803531 0.0090436 -0.595195 0.883557 -0.313399 0.348006 -0.767016 0.562337 -0.308973 -0.138114 -0.972699 -0.186498 0.503925 -0.626337 0.594779 0.0800268 -0.322442 0.9432 0.0495846 -0.99803 0.0384475 0.511642 -0.416091 0.751725 -0.917272 -0.367708 0.15298 0.565536 0.121318 -0.815752 -0.179278 0.847518 0.499572 0.174495 -0.478014 -0.860845 0.30378 -0.872554 0.382579 -0.935813 0.110732 -0.334651 0.114494 0.848305 -0.516982 0.888268 0.392306 -0.238908 -0.65625 -0.713284 -0.246093 -0.911751 -0.399364 -0.0960105 -0.0565162 -0.551865 -0.832016 -0.984618 -0.172637 -0.02692 -0.853807 -0.439335 0.27928 -0.771824 -0.32081 0.548971 -0.551458 0.830352 -0.0800534 0.327018 0.422374 -0.845375 0.517765 -0.247677 -0.818887 0.865355 -0.271431 0.421291 0.316756 -0.907285 -0.276586 -0.660851 -0.133064 0.738627 -0.65977 0.73341 0.163748 0.52357 -0.380903 0.762095 -0.133153 0.809745 0.571475 -0.996762 0.0731533 0.0333818 0.999083 -0.041588 0.0101305 -0.0481928 0.147504 0.987887 -0.86957 0.468241 0.156842 -0.117088 0.0948304 0.988584 0.545153 0.368452 0.753028 -0.660474 -0.73343 0.16079 0.38399 -0.810386 -0.442523 0.0141673 0.35068 0.936388 -0.8087 -0.535638 -0.243097 -0.170403 -0.977746 -0.122377 -0.565853 0.443505 -0.695064 0.946752 0.281753 -0.155804 0.795999 0.0302523 0.604541 -0.304128 0.775363 0.55346 -0.130787 -0.84618 -0.516599 0.505807 -0.860634 -0.0588857 -0.146234 -0.533272 0.833208 0.3415 0.935033 -0.0953465 0.0712706 -0.354805 -0.93222 0.420996 0.544547 0.725418 -0.778236 0.606331 -0.163439 0.769048 0.622772 -0.143948 0.676509 -0.609167 0.413826 -0.816199 -0.546352 0.187932 -0.534244 0.672025 -0.512801 -0.464639 0.215874 0.858784 0.470933 0.868127 0.156774 0.831293 -0.475826 -0.287302 0.564717 0.266153 0.781189 -0.481428 -0.279704 -0.830658 0.481118 -0.679566 0.553819 -0.33618 0.608426 0.718889 -0.876288 0.0844032 0.474336 0.208873 0.665764 0.716331 0.197198 -0.448166 0.871929 -0.889617 -0.444317 0.10566 0.978488 0.0705695 0.19386 0.814057 -0.322715 0.482873 -0.0372683 -0.846818 0.530575 -0.564973 0.602226 -0.564029 0.477121 -0.64117 0.601045 -0.789154 -0.5467 -0.27992 0.813803 0.559899 -0.155684 -0.6831 0.297749 0.666873 0.361777 -0.901151 0.238838 -0.0187892 0.0504333 -0.998551 -0.760376 0.608089 -0.22816 0.334994 -0.563454 0.755181 -0.234023 0.827286 0.510716 0.329778 -0.588055 -0.738538 0.599393 -0.47252 0.646106 -0.870977 -0.372597 0.320266 0.461164 -0.691865 0.555563 0.631355 -0.594886 -0.497496 0.74236 0.617307 -0.260449 0.607501 -0.739216 0.290693 0.624172 0.40777 -0.666434 -0.931376 -0.232817 0.279885 -0.560429 0.662773 -0.49664 0.471851 -0.055721 0.879916 0.0733218 -0.877829 0.473328 -0.398529 -0.822108 -0.406587 -0.635182 -0.373491 -0.676053 0.227027 0.967598 -0.110513 -0.444545 0.225452 -0.866921 0.340921 -0.800207 0.493398 0.926197 -0.313185 0.209936 0.685497 -0.209435 -0.697303 -0.620716 0.724597 0.299451 0.386199 -0.0870447 0.918299 0.937775 -0.326168 0.119134 -0.269774 0.850691 -0.451161 -0.924643 -0.314214 0.215185 0.895987 0.198941 0.397027 -0.592172 0.175536 -0.78646 0.308308 -0.228311 -0.923483 0.250624 -0.547583 0.798336 -0.225481 -0.432379 0.873044 -0.887205 -0.459466 -0.0419275 0.643508 0.672136 0.366239 0.809341 0.370532 -0.455711 -0.0590117 0.533996 0.843425 -0.546494 0.829386 0.116033 0.0305857 -0.948698 -0.314701 -0.588484 0.0861376 -0.803907 -0.90937 -0.182388 -0.373872 0.446432 0.670291 0.592797 -0.742223 0.653995 -0.146275 -0.809759 0.125054 0.573282 0.488183 0.398654 -0.776371 -0.481772 0.782906 -0.393642 -0.934992 -0.279926 0.217786 0.609513 0.57705 0.543605 0.885008 0.376302 0.27415 -0.459837 0.883895 -0.0853206 0.0112825 0.987805 0.155289 -0.533861 0.605112 -0.59062 0.44273 0.888491 0.12072 -0.503635 0.825618 0.254375 0.917123 -0.0332145 -0.397219 -0.802492 -0.340356 -0.490066 -0.183089 0.755628 0.628892 0.503034 0.490939 0.711291 -0.361637 0.82851 -0.42754 -0.256413 -0.237436 -0.936951 -0.357149 -0.919381 -0.164875 0.282474 0.684998 -0.671555 -0.502396 0.45328 -0.736299 -0.885031 -0.455992 0.0937606 0.69938 -0.0131714 -0.714629 -0.761342 0.623167 0.178944 -0.51056 -0.0675562 0.857184 0.250781 -0.690723 0.678241 0.475236 -0.547258 0.688956 0.3208 0.906389 0.274857 -0.639713 0.248916 -0.727192 0.74077 -0.225789 -0.632676 -