# vtk DataFile Version 4.0
Generated by libgran
ASCII
DATASET POLYDATA
POINTS 1686 FLOAT
-32.4762 1.28146 6.85108 -31.293 0.635532 8.23081 -33.0592 1.19363 5.16676 -32.0435 2.22042 6.22294 -33.3864 0.560307 9.37117 -33.5137 1.63208 4.032 -31.7175 -0.0349526 12.963 -31.811 -1.6826 13.5903 -32.0651 0.627014 11.8635 -32.0098 -0.553535 10.5199 -31.4681 1.09606 10.5046 -30.6966 1.10377 9.44469 -31.8822 -3.08618 16.2712 -30.9157 -2.91951 15.3734 -30.8204 -1.77951 15.2958 -29.9492 -0.333994 14.8207 -29.3283 -0.0657549 15.5574 -29.2029 0.3995 14.1204 -33.3215 -3.79371 14.2009 -35.53 -4.07403 15.4515 -34.3565 -3.73906 14.9237 -34.7434 -3.85722 16.6252 -36.2804 -4.5325 14.4477 -34.2324 -4.16694 17.6794 -34.376 -2.7581 18.0415 -34.6738 -2.27796 19.1073 -33.3898 -2.28155 19.4249 -33.2314 -3.72041 22.138 -34.1412 -2.66378 22.8045 -33.4325 -2.76941 21.0963 -33.2996 -4.98711 22.5366 -34.489 -6.28518 22.1127 -33.851 -2.6985 24.4627 -32.6914 -3.34294 19.8328 -33.9434 -6.859 20.0817 -34.7959 -7.95112 19.735 -32.7105 -7.33773 19.9446 -31.6269 -7.56783 19.8949 -31.0507 -6.48574 21.2264 -31.7276 -5.89141 22.7205 -30.5566 -5.11145 21.4458 -34.1812 -9.19134 20.6628 -26.0489 -11.7362 22.8765 -26.9656 -11.2036 22.074 -28.2408 -12.1111 21.9082 -25.6567 -11.1267 24.7302 -27.0417 -11.1371 25.158 -29.6796 -13.0321 21.9352 -31.4598 -10.3829 19.5086 -30.4081 -9.77534 18.8039 -30.9925 -11.5613 19.91 -32.5118 -11.3412 20.2748 -30.275 -12.64 20.8709 -33.3458 -10.4206 21.2106 -29.4154 -10.9603 17.7809 -29.3333 -12.1131 16.5374 -28.4455 -14.3158 17.0333 -28.0602 -14.0351 15.7918 -29.2833 -13.2889 15.9006 -27.2302 -13.7679 18.1339 -26.2367 -13.5255 15.5735 -25.6825 -13.5622 18.6292 -25.5845 -14.6798 18.7872 -25.4334 -11.4824 12.1133 -26.4215 -11.9678 11.7721 -26.8146 -10.5744 12.6248 -24.1732 -11.4914 12.5374 -23.9882 -12.0548 10.9912 -24.1109 -11.4362 14.3999 -24.8795 -12.2976 15.5475 -36.1018 15.1516 3.11721 -36.0543 14.602 1.21111 -35.9432 13.617 1.07934 -35.3029 15.7302 4.37081 -34.8719 15.6273 5.3747 -33.9445 15.9811 5.4964 -34.3822 15.4624 6.23087 -39.0796 13.859 0.275525 -39.8412 14.5294 -0.58278 -38.1041 15.2486 -0.0463825 -38.4576 13.5334 1.13744 -39.2309 12.0778 0.45353 -39.9441 10.9794 0.785497 -40.6668 9.82413 1.3869 -44.8047 10.259 0.164092 -44.8144 9.39238 -0.627515 -45.3446 11.6029 -0.7198 -44.4736 11.7348 1.4708 -41.5509 9.26363 1.16282 -40.4463 8.29245 0.500807 -40.5998 8.55648 -0.789725 -40.2017 7.61735 -1.30554 -40.2961 6.83741 0.0677607 -40.4013 10.0358 -1.72223 -41.8848 9.03029 -1.5112 -40.3234 10.4261 -3.00097 -40.2947 5.39992 -0.402028 -40.8617 5.35816 1.11553 -40.5938 7.00769 -7.76331 -39.6615 6.75925 -8.67817 -40.6663 5.28259 -8.51425 -40.9955 8.54661 -9.45423 -41.6698 7.97355 -10.0547 -42.1176 8.73639 -8.37529 -42.7481 7.57068 -10.8364 -42.7919 8.16334 -8.97576 -41.6246 3.75997 -8.35096 -41.9659 9.04806 -6.23257 -42.5535 9.02834 -7.43704 -42.2023 9.01761 -5.02877 -42.6897 8.81668 -4.03558 -43.5359 8.4615 -3.39273 -42.7593 8.31253 -2.67734 -44.5827 9.80106 -3.74719 -43.2572 9.58018 -1.60148 -38.925 3.32827 -10.5916 -37.5693 3.5463 -11.6108 -38.242 2.2762 -10.2681 -39.2787 4.5596 -10.2354 -39.6247 5.78379 -10.6666 -41.2694 5.66418 -10.7125 -38.7716 0.713432 -9.88552 -42.2972 5.1994 -11.3274 -41.5239 0.256862 -7.35589 -40.8702 1.43515 -7.48659 -42.0154 2.13689 -7.76694 -39.6674 2.54747 -7.78822 -25.9095 12.9811 19.7052 -26.368 13.9875 20.4433 -24.8008 14.0474 20.1174 -27.207 12.3119 18.5443 -29.0779 12.9248 19.6519 -29.7391 10.5051 17.9398 -29.7335 12.0232 16.8468 -30.4478 9.4475 17.7978 -29.9954 8.68772 18.4258 -28.9397 11.8402 16.2668 -32.1239 9.10368 17.9291 -30.983 9.45871 16.4287 -32.7463 8.93442 19.4882 -26.6926 4.17037 13.3906 -26.5241 3.04765 13.3273 -27.0142 5.39434 13.7986 -28.5583 4.68942 13.7363 -28.0008 2.36643 14.0827 -27.7319 1.94328 12.6666 -28.4666 1.72954 15.4383 -27.3788 1.13012 11.5411 -27.0333 1.31646 10.5413 -29.8528 8.96263 15.5409 -30.9723 8.94111 14.8239 -28.5304 9.01846 15.0949 -30.9199 7.39767 13.9321 -32.0096 8.80886 13.6458 -31.4472 6.15592 13.8878 -30.0319 5.63951 13.8162 -33.1871 6.45633 5.65322 -34.1753 5.98387 4.89936 -32.7687 7.29519 6.37422 -32.3287 5.64335 6.88267 -35.9276 5.30499 5.35933 -34.0072 3.84834 6.65605 -37.0726 5.7699 4.79556 -36.7448 5.80168 3.317 -39.8676 4.38242 3.23974 -38.288 4.00805 3.45678 -41.0182 4.79588 2.71981 -41.1594 4.24232 0.973852 -37.1972 5.46484 2.44363 -37.7687 3.33257 4.75151 -32.433 5.65142 11.6104 -31.7068 7.90816 10.5854 -33.0444 8.27192 11.655 -33.2725 8.65698 12.6677 -34.0871 7.65428 13.0991 -32.2891 10.1861 12.8489 -34.5729 6.38283 13.759 -34.5219 3.26463 9.22776 -34.1367 3.16393 10.4964 -33.5284 3.38862 7.51226 -33.5595 3.48437 11.7278 -26.1854 23.4454 28.1425 -26.6452 22.1713 28.6234 -26.2139 22.9543 29.7043 -25.9287 23.6373 26.852 -26.2727 25.1004 27.5032 -26.9972 26.3035 27.6052 -23.3791 23.5813 28.0685 -23.0509 23.7583 30.3839 -23.8804 24.3757 31.5682 -22.7818 23.5467 29.099 -22.3512 23.2414 28.122 -24.0691 25.4287 28.6705 -23.8488 24.4799 32.8006 -25.7636 27.5139 33.033 -25.3784 28.4669 33.8794 -26.3929 29.3509 33.1745 -26.1098 26.896 32.1802 -25.1721 26.1764 31.9022 -23.7795 28.9819 34.8999 -25.917 25.3383 31.2172 -21.1921 25.9038 34.607 -21.4002 24.5978 34.7457 -21.0337 26.9932 34.65 -20.0034 27.579 35.4886 -21.044 28.432 35.115 -18.4605 27.2145 36.1913 -18.6 28.4714 35.8658 -22.0383 29.381 35.0324 -20.1084 29.5366 34.6343 -28.2422 23.8362 32.9388 -28.6525 26.0806 33.369 -30.7671 25.01 35.4095 -30.6747 23.9069 34.5168 -30.2802 23.2816 32.7642 -26.9431 23.5531 32.8279 -32.0723 21.1488 30.7777 -32.6535 21.9807 32.252 -30.8177 20.8961 30.4124 -29.9657 20.5669 30.0054 -32.7387 22.9912 33.5404 -33.6446 22.6014 33.3747 -35.4078 23.1463 33.1888 -36.1527 23.1214 31.8834 -35.7786 22.2533 31.3897 -37.0915 24.556 31.115 -37.5945 24.3352 32.7462 -38.019 25.0749 31.7652 -36.8531 22.3375 33.2055 -37.6238 25.2967 34.3621 -37.7488 26.3748 32.4891 -41.5301 25.9818 35.6983 -40.92 27.0734 35.2465 -39.9917 26.2804 34.7473 -38.5931 26.2067 34.4687 -41.4591 26.347 33.5287 -37.4658 26.3864 34.1147 -36.732 9.71406 22.0625 -36.9628 8.71504 22.9083 -38.2221 10.0378 22.7205 -35.338 9.39933 21.2394 -36.3403 10.812 21.1752 -34.1007 8.02187 21.0154 -33.1303 7.20751 20.3051 -33.6546 6.5105 19.5643 -31.9852 6.646 19.607 -34.2227 5.50055 18.9122 -34.3702 5.09089 20.2804 -30.2023 4.91932 19.1739 -29.7446 5.90383 18.8516 -41.3557 10.9919 21.5099 -42.0456 10.3551 22.4514 -43.4327 10.0974 21.6428 -41.4714 12.4651 21.7417 -42.7577 12.3137 21.0448 -39.9182 8.35405 19.8816 -39.9521 9.94909 20.5401 -39.4105 7.94729 20.7974 -38.8776 7.4964 21.5135 -37.1552 7.6519 20.8327 -38.0831 6.76597 22.0744 -30.2127 16.1753 22.3002 -31.3464 16.2786 22.9874 -30.2148 15.9243 24.1816 -29.1939 15.5912 21.6217 -30.0982 15.3667 20.5895 -32.3066 17.1014 23.2206 -31.8359 18.0654 24.6153 -30.7797 18.7017 26.1089 -33.9835 11.2176 19.772 -33.0544 10.8765 20.6265 -32.226 11.825 19.7782 -34.8662 12.1774 19.5108 -35.889 11.3875 20.2561 -31.0433 11.8672 20.5618 -30.8174 12.8412 20.5421 -29.6305 20.0339 26.56 -29.6994 18.4717 26.3035 -30.4744 20.1458 28.727 -31.8479 20.2131 27.6163 -29.485 16.9293 26.4266 -28.9043 15.7422 27.2797 -31.5087 20.4936 25.2706 -32.5165 19.8863 26.2698 -31.3476 21.8037 25.4305 -32.8505 22.5736 25.0783 -34.4689 22.4198 25.1555 -34.3848 23.7784 23.47 -5.89074 24.5183 37.8754 -4.8977 24.4682 37.982 -7.14179 24.0626 37.9292 -5.37836 23.7758 37.4438 -7.9185 25.1571 39.0351 -8.72152 23.7219 38.413 -8.76848 24.7999 38.6478 -8.77479 25.6578 39.1616 -4.65029 22.7656 37.6386 -3.58822 23.4517 37.0123 -4.23566 21.0756 37.6526 -9.60993 22.8692 37.3466 -5.46388 19.2736 38.9607 -5.58627 20.2087 37.7461 -6.28159 18.1039 39.1872 -6.7107 17.1114 39.482 -3.6841 20.4077 38.5682 -0.945985 24.7296 37.9974 -2.07442 24.8698 37.3081 -2.26295 23.6516 37.1787 0.126766 26.266 37.8879 -2.07361 26.5176 36.9934 -2.41587 22.4137 36.9992 -2.22523 28.2795 37.3983 0.495938 30.6457 37.7536 1.33439 29.4132 38.4458 -2.29841 29.9382 37.1138 2.31689 29.0189 37.615 -3.06338 29.2476 38.4747 -20.7373 31.5415 42.3574 -19.5265 31.094 42.0382 -20.7999 31.5086 44.0582 -21.9937 30.9797 42.651 -18.2506 29.9117 44.4252 -18.6306 30.2466 45.9885 -17.6954 29.3031 42.9004 -15.3808 28.4934 40.9617 -16.1537 28.2923 42.0248 -14.4334 27.1523 40.7577 -17.2035 28.1597 42.2259 -17.0346 27.0026 43.1595 -16.1276 26.5467 42.5606 -13.2436 27.1361 41.5396 -14.0303 26.6216 42.1864 -16.856 26.1447 44.4894 -11.1674 23.6521 42.1203 -12.397 23.9596 42.5291 -11.0477 24.1503 41.2615 -10.2493 23.804 41.7542 -12.6757 24.8915 43.6165 -13.0538 23.8343 44.4009 -13.3472 26.3293 43.4816 -10.2986 25.2863 40.9488 -14.9516 26.2171 42.9262 -10.0856 27.3865 38.8914 -9.47704 26.2559 38.5177 -10.6547 26.9162 40.262 -10.7666 27.8893 40.4636 -11.6592 27.4416 38.9582 -10.5795 27.2435 41.2039 -19.8062 34.8757 39.7392 -19.9526 35.8404 38.1021 -18.8352 35.3004 40.543 -18.7513 36.9011 40.3708 -18.4276 36.6227 41.2751 -18.9766 37.4524 41.1742 -19.0026 38.5911 40.6838 -19.8247 35.5038 37.051 -20.625 36.8877 37.6037 -17.9032 37.8307 41.9955 -18.9925 40.4146 44.6641 -20.7121 40.1375 44.083 -20.8573 40.6591 45.1151 -20.9797 39.4235 42.6939 -22.3158 39.4394 43.9005 -19.6124 39.2794 41.4808 -17.9292 38.9693 41.5051 -20.8043 42.3903 46.5873 -19.6911 43.0475 45.3182 -20.2259 41.8711 47.6661 -21.4257 41.2478 46.4195 -19.6353 43.1979 44.0621 -18.462 43.9085 44.9014 -20.4307 39.3828 48.6264 -21.3357 38.2069 51.6343 -20.687 39.3252 51.3233 -21.7641 40.0548 52.0371 -19.7476 39.1734 50.0906 -18.2159 40.0927 50.0084 -22.6887 40.8052 51.8738 -16.6375 28.1657 38.6757 -15.945 27.9129 37.5691 -16.1313 29.2916 37.4068 -15.6679 26.372 37.5415 -17.2562 29.5911 36.4416 -14.5931 25.8497 38.6906 -13.1363 26.7025 38.821 -18.662 29.5088 35.4009 -18.9437 30.6572 34.2443 -18.234 29.957 34.1662 -18.0479 30.893 33.8675 -19.2199 31.711 35.9612 -18.824 31.1389 36.9898 -21.7931 30.1406 37.0114 -22.2787 31.3559 35.9868 -21.9693 33.4836 41.561 -23.5765 32.8077 41.6626 -21.3526 32.6478 40.7308 -21.7824 32.573 39.52
[...]
POINT_DATA 1686
FIELD FieldData 1
normals 3 1686 double
-0.383012 0.398147 -0.833535 0.800169 -0.247782 0.5462 -0.199994 -0.485979 -0.85078 0.81568 0.540813 0.205395 -0.304598 0.858965 0.411581 -0.254526 0.92443 -0.28398 -0.376913 0.916651 -0.132992 -0.470446 -0.731 0.494286 0.0292719 -0.254685 -0.966581 0.0260082 -0.925864 -0.376962 0.567758 0.723734 -0.392251 0.20375 -0.716023 -0.66768 -0.427226 -0.824204 0.371705 0.539267 -0.657531 -0.526161 0.634593 0.482463 -0.603756 0.23654 0.963055 0.12874 -0.384349 0.694816 -0.607871 0.509808 -0.229561 -0.829094 -0.799153 0.59511 -0.0848419 -0.937783 0.205489 -0.279889 0.235785 0.540457 -0.807658 -0.151145 0.422296 0.893768 0.187372 -0.663965 -0.723907 0.662107 -0.73202 0.160504 0.51849 0.676824 0.522568 -0.816216 -0.196686 0.543237 0.467718 -0.200271 0.86089 0.711586 -0.663409 0.231375 -0.198264 0.393221 0.897813 0.510412 0.287594 -0.810413 -0.779795 -0.603288 0.167219 -0.409602 -0.69478 -0.591191 0.488497 -0.427933 0.760424 0.230762 -0.861122 -0.45301 0.823333 0.114673 0.555853 -0.0291548 -0.977444 0.209173 0.409551 -0.593404 -0.692921 0.674027 0.363299 0.643197 -0.0978368 0.718796 0.688302 -0.579017 -0.124471 0.805758 0.591982 0.655492 -0.468921 0.643839 -0.262783 0.718621 -0.325438 0.939586 -0.10615 -0.591218 -0.406918 -0.696332 -0.68399 -0.500666 0.530559 0.807812 0.563516 0.172887 -0.577256 0.553128 0.600687 -0.754825 -0.420315 -0.503562 -0.409611 -0.912259 0.00120099 0.642124 -0.304667 -0.703459 0.876941 -0.266142 0.400178 -0.642404 -0.0459647 0.764987 -0.159467 -0.812483 0.56075 -0.191571 0.966498 0.170831 0.350545 -0.880338 -0.319567 -0.268459 -0.272386 -0.923978 0.519433 -0.123527 0.845535 0.904704 0.15717 -0.395991 -0.318422 0.903394 -0.287204 0.695876 0.671354 0.255029 0.918799 0.352454 0.17772 0.851765 -0.465572 0.240289 0.753723 0.652017 0.082319 0.86761 -0.050165 -0.494708 -0.120563 -0.535546 -0.835856 -0.513678 0.85782 0.0167604 0.392577 0.0411676 0.918797 0.57756 -0.522309 -0.62739 -0.33028 0.0139937 0.943779 -0.438377 -0.875391 0.203757 -0.069746 0.162826 0.984187 -0.022251 -0.38677 -0.921908 -0.133356 0.598244 -0.790139 0.868643 0.415781 0.269418 -0.437686 -0.518642 0.734467 0.489693 -0.164864 0.856166 0.927378 0.353778 0.121698 -0.162819 -0.840441 0.516864 -0.92439 -0.170061 -0.341441 0.812696 0.549106 0.194956 0.784803 0.514802 0.345055 0.0114783 -0.940767 -0.338859 -0.724659 -0.157678 0.670826 0.00194764 -0.997585 -0.0694219 -0.561651 0.826895 -0.0281496 -0.571331 -0.0397515 -0.819757 0.021734 0.516946 -0.855742 -0.512172 0.855737 -0.073442 0.886024 -0.437085 0.154656 -0.218616 0.534091 0.816673 -0.372116 0.798115 -0.473859 0.0259118 -0.141008 -0.989669 -0.0684189 -0.92095 0.383627 0.570579 0.681236 -0.458647 -0.912971 -0.324304 -0.247612 -0.492726 -0.29099 -0.820089 0.0697465 -0.516544 -0.853415 -0.497216 -0.558297 0.664139 -0.29576 0.85113 0.43371 0.636592 0.602695 -0.481155 -0.368177 -0.873963 -0.317229 -0.318691 0.644674 0.694861 -0.992956 0.0716144 0.0943894 -0.803463 -0.454891 0.384086 -0.0854308 -0.474489 -0.876106 -0.129194 0.118168 0.984553 -0.590205 -0.64866 0.480518 0.219989 -0.727111 0.650318 -0.367626 -0.746831 -0.55416 -0.456414 0.696669 0.553479 -0.0310414 -0.897606 0.439705 -0.815169 0.542428 0.203154 -0.0385191 0.393456 0.918536 -0.231614 0.797127 -0.557623 -0.459368 0.874202 0.157327 -0.849688 0.36337 0.38209 0.50604 0.5814 -0.637101 -0.166722 -0.688705 0.705613 0.495965 0.867957 -0.0258834 -0.841928 0.356233 -0.405285 -0.802754 -0.47584 0.359391 -0.362838 -0.87406 -0.323059 -0.22504 0.0110564 -0.974287 -0.292062 0.905604 -0.30754 0.945711 0.272685 0.176841 -0.199466 0.974423 -0.103506 0.257048 0.839636 -0.478474 -0.390128 -0.479734 -0.78591 -0.848696 0.526716 -0.0478161 0.718488 0.58662 -0.3737 -0.907446 -0.189388 -0.375065 -0.694316 0.0347113 -0.718833 0.179634 -0.936604 0.300839 0.185174 0.581534 -0.792167 -0.888366 -0.120954 -0.442918 -0.435965 -0.880728 0.185078 -0.60864 0.764563 -0.212134 -0.787737 -0.222867 0.574282 0.353158 0.132162 -0.926182 0.165365 0.053615 0.984774 -0.885278 0.433454 0.168525 -0.716824 -0.689262 0.105271 0.56366 0.790522 0.239505 -0.980445 0.0855982 0.177203 -0.759795 0.00804482 0.650113 -0.49088 -0.415107 -0.765978 0.293918 -0.644938 0.705456 0.843979 -0.398058 -0.359512 -0.49854 0.584398 -0.640263 0.777068 -0.628242 0.0384501 -0.342451 -0.649761 -0.67863 0.545286 0.684076 -0.484462 0.394848 -0.893677 -0.21316 -0.694826 0.517515 -0.499395 -0.922129 -0.348073 0.16889 0.493147 -0.864488 0.0972955 0.201155 -0.103875 0.974036 -0.787 -0.576329 0.220172 0.217289 0.94274 -0.253037 0.657216 -0.709106 0.255412 -0.96539 -0.102553 0.239801 0.959424 -0.281957 -0.00251729 -0.179599 0.56746 -0.803576 0.507393 -0.535677 -0.674984 -0.809786 0.409481 0.420204 0.769863 0.0351051 0.637243 -0.340761 0.00398042 -0.940142 0.199532 -0.557542 -0.805813 0.959744 -0.198837 0.198383 -0.250573 -0.710584 0.657483 0.269986 -0.706742 0.653929 -0.54147 0.648085 0.535533 -0.796195 -0.284329 0.53407 0.568116 0.669393 0.478703 -0.24643 -0.333308 0.910043 0.415266 0.859677 -0.297506 -0.239438 -0.938148 -0.250097 0.512889 -0.0537822 -0.856769 0.898047 -0.154488 0.41188 0.480608 0.177768 -0.858729 -0.320793 0.474932 0.81947 -0.330758 0.685194 -0.648929 -0.790526 -0.588927 -0.168027 -0.359225 0.194121 0.912839 0.587445 -0.493267 -0.641558 0.243503 0.969852 0.00966363 -0.96803 0.233246 0.0922759 0.754836 0.597075 0.271522 0.111674 -0.843253 -0.525788 -0.717859 -0.225835 0.658542 0.157472 0.631673 -0.759073 0.273093 -0.936959 -0.218008 -0.325783 -0.462157 -0.824789 0.749521 0.330051 0.573834 0.423767 -0.866135 -0.26501 0.809005 0.0868295 0.581353 -0.20553 0.970823 -0.123533 -0.769963 0.248229 -0.587826 0.167741 -0.471443 -0.865797 0.789848 0.428129 0.439142 -0.912661 -0.366584 0.180739 0.12588 0.570752 -0.811416 -0.0821616 -0.735275 -0.672771 0.0326054 0.518653 0.854363 0.997616 0.0671833 -0.0158017 -0.0429466 0.920091 -0.389344 0.545322 -0.43169 0.718518 0.405823 0.825129 0.393027 -0.951371 0.0289755 0.306682 0.978565 0.184562 -0.0913683 0.517397 -0.496576 -0.696931 0.850612 -0.167575 -0.498375 0.100065 -0.98986 0.100816 -0.00758352 -0.113252 -0.993537 0.402091 -0.512036 -0.75904 0.781626 0.213514 0.586065 0.407823 -0.769513 -0.491457 -0.17336 0.0624129 0.982879 0.846742 0.516813 0.126223 0.00528677 -0.845937 -0.533257 0.0880787 0.948107 0.305508 -0.817781 0.558291 0.139803 -0.945371 -0.0133611 -0.325723 -0.2004 0.0115696 0.979646 0.173697 -0.85653 0.48599 -0.615226 -0.431073 0.660055 0.112222 0.210259 0.971184 -0.312257 0.949947 -0.00978988 -0.499988 -0.795462 0.34242 -0.141525 0.751244 0.644673 0.582487 0.350036 0.73361 -0.967686 -0.213403 0.134325 -0.357608 0.878229 -0.317538 0.570731 0.0851544 -0.81671 0.8278 -0.1588 0.53808 -0.398999 -0.813246 0.423593 0.299534 0.338483 -0.892025 0.850858 0.384419 -0.358136 0.620018 -0.614597 0.487696 -0.639251 0.708127 0.299857 0.543136 -0.699146 -0.464972 -0.459159 0.713524 -0.529203 0.694112 -0.678316 0.24103 0.276304 -0.136042 -0.951393 -0.80059 -0.560974 0.210627 0.868784 -0.425473 0.253354 0.232485 -0.448976 -0.86277 0.0850035 -0.858629 0.5055 -0.107339 0.403876 -0.908495 0.565065 0.58063 0.586148 0.129066 -0.0649908 0.989504 -0.81896 -0.571842 -0.0479781 -0.568161 0.314127 -0.760603 -0.969146 -0.0339462 0.244139 -0.317177 -0.117496 -0.94106 0.972071 0.118416 0.20262 0.103527 -0.0994894 0.989638 -0.464329 -0.52517 0.713158 0.997233 0.0742819 0.00295111 0.725204 0.0812139 -0.683728 -0.202746 -0.804716 0.557965 0.1765 -0.134052 -0.97513 -0.957165 -0.0307668 -0.287903 0.174458 -0.385093 0.906238 0.842302 -0.450051 0.296616 -0.061937 -0.674617 -0.735565 -0.00306884 0.853529 0.521036 0.473779 0.110528 0.87368 0.582457 0.525755 0.619941 -0.995042 0.0318295 0.0942203 -0.0659799 -0.309217 0.9487 0.762402 0.639267 0.100404 0.112335 0.927956 -0.355356 -0.91046 0.138056 0.389875 0.420348 -0.597065 0.683243 0.646237 0.37689 0.663575 0.566767 0.806394 -0.16883 0.497883 -0.755756 -0.425377 0.514018 -0.424831 0.745187 -0.859421 -0.357582 -0.365418 -0.283524 -0.786611 0.548505 0.864171 -0.400538 0.304595 0.816913 0.576479 -0.0180208 -0.190809 -0.0307917 0.981144 -0.655763 0.733701 0.177923 -0.847103 0.0361916 -0.530194 -0.771288 -0.189981 0.607472 -0.451396 -0.733819 -0.507692 -0.480662 -0.692318 -0.5382 0.512381 -0.742404 -0.431628 -0.770392 0.236621 0.592036 0.993043 -0.0500861 0.106572 -0.00631234 0.857885 0.513802 -0.80934 -0.577271 -0.108293 -0.856292 0.500757 0.126512 -0.84998 -0.357128 -0.38729 -0.26498 -0.960204 0.0882872 0.797094 -0.274093 -0.538066 0.679613 -0.729798 -0.0742968 -0.0790676 -0.275396 -0.958074 0.160663 -0.963147 0.215718 0.038275 -0.028072 -0.998873 -0.978375 -0.206558 0.0107976 0.549271 -0.785893 0.284031 -0.128057 0.0619443 0.98983 0.788787 0.603979 0.114127 -0.339653 0.74423 -0.575115 -0.528178 -0.474017 -0.704512 0.283964 0.932412 -0.223547 0.340471 0.903493 0.260346 0.375256 -0.763886 0.525035 -0.492099 0.858444 0.14461 -0.403853 0.345284 -0.847161 0.434598 -0.887207 -0.154879 -0.418923 -0.800249 0.429075 0.547905 0.492872 -0.675927 -0.346047 0.109645 0.931788 -0.548892 -0.101458 0.829713 0.661854 -0.548943 0.510501 0.48623 0.0685728 0.871136 -0.707582 -0.460337 -0.536113 0.743786 -0.169032 -0.646691 0.363803 0.165843 0.916593 -0.188577 -0.439569 -0.87819 0.403628 -0.635465 -0.658232 -0.369273 -0.836511 0.404829 0.543847 -0.705632 0.454219 -0.680483 0.703879 -0.203708 -0.511597 -0.453259 0.729949 0.395431 -0.909102 0.131029 0.64597 0.689425 0.327743 -0.140793 0.174921 0.974464 0.690199 -0.404618 0.599925 0.798386 -0.346265 0.492625 -0.431164 -0.0387833 0.90144 0.91807 0.151885 -0.366166 0.119684 0.49815 -0.858791 0.152435 0.970672 0.1859 -0.225631 -0.0865585 0.97036 -0.82393 0.467168 -0.32077 -0.168984 0.984169 0.0534472 -0.780524 -0.579438 -0.234593 -0.756271 0.17546 0.630291 -0.147732 -0.95516 0.256602 0.187114 -0.645723 0.74029 0.0752434 0.327331 0.941909 -0.817332 -0.120327 -0.563462 -0.11187 0.973054 0.201619 0.338132 -0.346259 0.875084 0.191717 0.618489 -0.762047 0.632858 0.77098 -0.0712824 -0.548973 0.829724 -0.100928 -0.225211 0.55132 0.803322 0.323761 -0.278403 0.904251 0.297724 0.860261 0.413897 -0.0638217 -0.955176 -0.289077 -0.864085 0.428786 0.263627 0.749629 0.656642 -0.0829281 0.992415 -0.120964 0.0219317 -0.727247 -0.398076 -0.559149 -0.872394 0.123519 0.472939 0.45971 -0.316002 -0.829945 -0.876396 -0.300104 0.376653 0.907539 0.171954 -0.383152 0.775667 -0.482021 0.407426 -0.317478 -0.677366 0.663613 0.795657 -0.0201984 -0.605411 0.895885 0.158133 0.415191 -0.303953 -0.465166 -0.831404 -0.739856 0.170635 -0.650766 0.433438 0.881231 0.188583 0.677628 -0.524724 0.515252 0.296163 -0.954748 0.0272797 0.944859 0.163512 -0.283735 -0.132263 0.89308 0.430017 -0.00546519 -0.315321 -0.948969 -0.45068 0.441971 -0.775596 -0.792242 -0.142583 -0.593315 0.69316 0.531822 -0.486512 -0.000670481 -0.784599 -0.620003 -0.186958 0.594067 -0.782388 0.277749 -0.756322 0.592311 -0.937982 -0.294585 -0.182784 0.797019 0.233977 0.55679 0.659796 0.618821 -0.426298 -0.46782 0.21234 -0.857937 0.18613 0.936033 -0.29866 0.895801 0.235837 -0.376726 0.70967 -0.700196 -0.0780655 0.849328 0.149973 0.506113 -0.45346 -0.722053 0.522507 -0.741309 0.616303 -0.265766 0.255709 0.598992 -0.758829 0.947705 -0.0445483 -0.316025 -0.659567 -0.72042 -0.214398 -0.33101 -0.79125 -0.514156 -0.0988169 0.716462 -0.690592 -0.435959 -0.875874 0.206844 -0.991478 -0.121037 0.04818 -0.755458 0.654687 -0.0258505 -0.469901 -0.242539 -0.848745 -0.0577627 -0.902474 0.426854 -0.423853 -0.213833 0.880127 0.307274 -0.947297 -0.0906175 0.615222 0.160372 -0.77187 -0.0465459 -0.588505 -0.807153 -0.661768 -0.748878 -0.0352843 -0.618124 0.785422 0.0321585 -0.648276 -0.403941 0.645422 -0.000748491 0.976753 0.214368 0.538418 0.343481 0.769498 0.294223 -0.625127 0.722945 -0.244195 -0.968608 -0.0465529 0.190881 -0.979258 -0.0679628 0.933505 0.341594 -0.109007 0.97038 -0.180208 -0.1609 0.284382 0.955765 -0.0750955 0.375639 0.126794 0.918052 0.558957 0.00674502 -0.829169 0.81647 -0.033029 0.576443 -0.153831 0.0742818 -0.985301 -0.344474 0.329025 0.87925 0.604248 0.792654 0.0811447 -0.358012 -0.501762 0.78744 -0.889522 0.455809 0.0314283 0.984046 -0.131858 -0.119441 0.0184123 0.51618 0.856282 0.196098 0.980518 -0.0113681 -0.466478 -0.809037 -0.357571 0.177686 0.46434 -0.86765 -0.229502 -0.151223 0.961489 -0.0351696 -0.146458 -0.988592 -0.913657 -0.267173 -0.306348 0.130007 0.227684 -0.965017 -0.376593 0.923675 -0.0707286 -0.14936 0.543071 0.826296 0.92886 -0.358525 -0.0931597 0.166666 -0.387561 0.906652 -0.136062 0.645192 -0.751807 -0.824144 -0.427833 -0.371141 0.946892 0.132374 -0.293041 -0.0345262 0.00448763 0.999394 -0.239201 0.857144 0.456166 0.0829348 -0.160043 0.98362 0.0889774 -0.721707 0.686456 0.706377 -0.0190765 -0.707579 -0.0898608 0.633042 -0.768884 -0.571139 -0.590443 -0.570243 0.847005 0.173372 0.502518 0.509964 -0.211291 -0.833842 -0.533053 -0.212529 0.818954 -0.0216966 -0.0916641 0.995554 0.470676 -0.184347 -0.862833 0.314212 -0.943796 -0.102563 0.915846 0.194148 -0.351472 0.484648 0.646637 0.589048 0.814796 -0.194818 -0.546035 0.856966 0.478069 0.192508 0.0421705 0.672887 0.738542 0.750634 -0.533724 -0.389471 -0.965298 -0.253401 0.0631479 0.0476797 -0.997361 0.0547588 -0.00339314 0.227595 -0.97375 -0.930715 0.314845 -0.186123 -0.706683 -0.592364 -0.386915 0.283456 0.334152 0.898886 -0.0104339 -0.992121 0.124846 0.86287 0.505274 -0.0124009 -0.419908 0.867627 -0.266271 0.868139 0.490053 0.0786315 0.33725 -0.765823 -0.547519 0.66334 0.713957 -0.224156 0.768446 -0.064346 0.636672 0.827113 0.0644979 0.558322 -0.319603 -0.867114 0.382057 -0.243702 -0.334839 -0.910215 -0.609005 0.46794 0.640426 0.365471 -0.247285 0.897374 0.473841 -0.580599 0.662103 -0.684518 0.708257 0.172648 0.434857 0.459434 0.774481 -0.369496 -0.597521 0.711647 -0.852252 0.232952 -0.4684 -0.682965 0.343102 0.644857 0.728606 0.344748 -0.591847 -0.84818 0.519546 0.103261 -0.69078 0.466103 -0.552785 0.721285 0.688287 -0.0775174 -0.83249 -0.302045 -0.464466 0.322717 0.585682 -0.743526 -0.15916 0.806558 -0.569327 -0.158229 -0.799693 -0.579184 -0.444071 -0.345372 0.826752 -0.145836 -0.954791 -0.259048 0.381845 -0.349908 -0.855429 0.451553 -0.421658 0.786323 0.527681 0.604883 -0.596381 0.749898 0.275593 -0.601416 0.517966 0.756147 0.399941 0.834537 -0.542112 0.0983027 -0.242293 0.00833904 -0.970167 -0.537173 -0.69923 -0.471723 0.989286 -0.132578 -0.0611251 -0.673678 0.274936 0.68598 -0.961244 0.102167 -0.25607 -0.287566 -0.172769 -0.942049 -0.0667846 -0.99771 -0.0107194 -0.620001 -0.654946 0.432024 0.632981 0.226914 0.740165 0.986573 -0.160305 -0.0312366 -0.355077 0.17805 0.917725 -0.0229386 0.284789 -0.958316 -0.180097 0.930918 -0.317736 -0.416589 0.150505 -0.89655 -0.236492 -0.780414 -0.578814 -0.867454 -0.427296 0.254837 -0.986477 -0.0533558 -0.154972 -0.990022 -0.137704 0.0298848 -0.165052 0.137917 -0.976594 -0.205017 -0.326913 0.922549 0.698394 -0.715691 -0.00557886 0.157968 0.958103 -0.238923 0.996666 -0.044026 -0.0686884 -0.309139 0.840294 0.445353 -0.208788 0.704232 0.678575 0.893806 0.448052 -0.0189806 -0.993771 0.111424 0.00204762 -0.190196 -0.390456 0.900761 -0.0368495 0.565373 -0.824012 -0.870991 -0.384347 -0.306026 0.644097 0.528703 -0.552822 -0.934213 0.0564088 0.352227 -0.754468 0.590546 -0.286414 -0.380026 0.153159 0.912207 0.370337 -0.547664 -0.750276 0.64905 -0.739813 0.17723 0.96672 -0.238128 -0.0935243 -0.114061 -0.89519 -0.430842 0.141186 0.01651 -0.989845 0.34536 0.0498031 -0.937148 0.1857 0.0680967 0.980244 -0.952766 0.0786299 0.293351 0.171648 0.819496 0.546776 0.0534256 0.858144 -0.510622 0.912835 0.380914 0.147096 -0.512649 0.671361 0.535224 0.270388 -0.111304 -0.956296 -0.165253 0.414481 -0.894928 -0.414971 0.508945 0.754171 -0.812967 0.536945 -0.225332 0.932112 0.272942 -0.238053 -0.205833 -0.78539 -0.583776 0.788933 -0.0313303 -0.61368 0.88232 -0.329219 0.336342 -0.761622 0.573098 -0.302473 -0.152246 -0.970377 -0.187588 0.49423 -0.634269 0.594508 0.0933869 -0.297889 0.950022 0.0397291 -0.998387 0.0405531 0.510459 -0.419499 0.750635 -0.923411 -0.348914 0.15991 0.56286 0.107023 -0.819594 -0.159465 0.852781 0.497328 0.157897 -0.480768 -0.862514 0.279621 -0.881898 0.379562 -0.933266 0.138551 -0.331389 0.139503 0.840394 -0.523714 0.899481 0.364434 -0.241084 -0.672852 -0.70022 -0.23867 -0.920066 -0.382573 -0.0843626 -0.0771748 -0.550701 -0.831127 -0.98788 -0.154551 -0.0143969 -0.859739 -0.421663 0.288183 -0.769855 -0.310938 0.557351 -0.537286 0.840797 -0.0662069 0.322907 0.422802 -0.846741 0.501756 -0.250778 -0.827859 0.866023 -0.290272 0.40712 0.30266 -0.917632 -0.257581 -0.66519 -0.107619 0.738878 -0.638472 0.753531 0.156665 0.507279 -0.393163 0.766871 -0.155037 0.810022 0.565533 -0.996421 0.0825368 -0.0182213 0.996793 -0.0545328 0.058559 -0.171766 0.195497 0.965545 -0.972373 0.226475 0.0565679 -0.224177 0.126395 0.966317 0.510651 0.336965 0.791006 -0.432941 -0.88177 0.187201 0.637576 -0.691068 -0.340473 -0.165676 0.403894 0.899678 -0.566075 -0.79378 -0.222423 0.129343 -0.990756 -0.0409054 -0.641356 0.176518 -0.746661 0.952732 0.178456 -0.245877 0.845386 -0.0360951 0.532935 -0.165314 0.827938 0.535901 -0.26971 -0.846567 -0.458891 0.409628 -0.909443 -0.0715511 -0.124711 -0.493274 0.860888 0.431011 0.885353 -0.174296 -0.0711924 -0.379923 -0.922274 0.540933 0.510354 0.668528 -0.723839 0.681452 -0.108076 0.811917 0.536172 -0.230892 0.646343 -0.669149 0.366715 -0.843237 -0.447541 0.297757 -0.514134 0.708203 -0.483854 -0.355458 0.283894 0.890536 0.567863 0.819082 0.0814628 0.747958 -0.565314 -0.347822 0.66373 0.231101 0.711375 -0.587561 -0.25442 -0.768142 0.462871 -0.711166 0.529144 -0.202148 0.658558 0.72487 -0.811669 0.184648 0.554164 0.342834 0.66161 0.666886 0.229623 -0.472398 0.850948 -0.91494 -0.359498 0.183431 0.993989 -0.0235799 0.106914 0.828743 -0.354746 0.432829 -0.0716936 -0.830362 0.552593 -0.55079 0.641086 -0.534453 0.500288 -0.66674 0.552422 -0.849469 -0.495749 -0.180652 0.825079 0.504158 -0.255086 -0.587601 0.341044 0.733767 0.331306 -0.920382 0.207688 -0.132163 0.0491076 -0.990011 -0.738827 0.660912 -0.131644 0.436889 -0.510551 0.740584 -0.298676 0.803202 0.515421 0.375999 -0.541713 -0.751779 0.686082 -0.380942 0.619819 -0.79657 -0.487212 0.357911 0.57537 -0.616106 0.537925 0.686779 -0.506131 -0.521696 0.640087 0.708446 -0.297309 0.716012 -0.644793 0.267524 0.533184 0.484067 -0.693826 -0.877495 -0.357243 0.31997 -0.667271 0.573871 -0.474786 0.51343 0.0118709 0.858049 0.213546 -0.858188 0.46681 -0.299883 -0.870059 -0.391239 -0.604545 -0.464375 -0.64721 0.0860473 0.988791 -0.122013 -0.505055 0.154616 -0.849125 0.467692 -0.741204 0.48154 0.968223 -0.18013 0.173488 0.680353 -0.116114 -0.723628 -0.710473 0.624364 0.32465 0.432334 -0.0244922 0.901381 0.978181 -0.191618 0.0802827 -0.379319 0.814374 -0.439218 -0.875454 -0.418903 0.24104 0.878573 0.300491 0.371234 -0.634538 0.114878 -0.764306 0.29873 -0.186009 -0.936035 0.350496 -0.510943 0.784914 -0.134212 -0.468477 0.873222 -0.834654 -0.5507 -0.00905114 0.586508 0.730722 0.349361 0.741634 0.462291 -0.486073 -0.0725171 0.510499 0.856815 -0.624542 0.764319 0.160515 0.114776 -0.934637 -0.336572 -0.636938 0.0351168 -0.770114 -0.898566 -0.266479 -0.348666 0.40384 0.7007 0.588161 -0.815 0.572751 -0.0879293 -0.790539 0.030933 0.61163 0.408679 0.461146 -0.787608 -0.583157 0.727452 -0.361581 -0.886693 -0.386333 0.254012 0.599754 0.600551 0.528804 0.843451 0.474377 0.252105 -0.559842 0.825765 -0.0684787 -0.098157 0.981899 0.161984 -0.61339 0.542569 -0.573909 0.34538 0.931521 0.113934 -0.586443 0.763981 0.269106 0.895741 0.0761059 -0.438014 -0.783491 -0.413315 -0.464018 -0.233001 0.718993 0.654797 0.479978 0.526458 0.701757 -0.46472 0.794413 -0.391079 -0.274769 -0.245089 -0.929749 -0.265829 -0.949347 -0.167555 0.174271 0.722331 -0.669229 -0.583977 0.409339 -0.701008 -0.826016 -0.549286 0.126421 0.659925 0.073427 -0.747735 -0.810823 0.534356 0.23881 -0.45164 -0.143174 0.880638 0.359182 -0.677529 0.641828 0.56454 -0.504883 0.652983 0.236648 0.930715 0.278869 -0.69828 0.191382 -0.689766 0.727644 -0.134895 -