# vtk DataFile Version 4.0
Generated by libgran
ASCII
DATASET POLYDATA
POINTS 1686 FLOAT
-32.6393 1.35086 6.8501 -31.4476 0.652019 8.19624 -33.2517 1.30946 5.17443 -32.1973 2.2932 6.23365 -33.5244 0.596682 9.37034 -33.71 1.78111 4.05463 -31.7803 -0.0883004 12.9193 -31.8481 -1.75002 13.5118 -32.1597 0.590066 11.8404 -32.1513 -0.565925 10.4746 -31.574 1.07162 10.481 -30.8203 1.08315 9.40835 -31.863 -3.21518 16.1617 -30.9135 -3.02178 15.2512 -30.8276 -1.87969 15.197 -29.9704 -0.419377 14.7423 -29.3545 -0.166238 15.4884 -29.2183 0.32675 14.0616 -33.3302 -3.88822 14.0929 -35.5151 -4.23172 15.3658 -34.3533 -3.8638 14.834 -34.7182 -4.03401 16.5359 -36.2716 -4.67872 14.3614 -34.1884 -4.36245 17.5751 -34.3523 -2.96657 17.9766 -34.6621 -2.49478 19.0428 -33.382 -2.50255 19.3755 -33.2346 -3.95715 22.0868 -34.1954 -2.93166 22.73 -33.4438 -3.01457 21.039 -33.2703 -5.21549 22.515 -34.4209 -6.5568 22.1196 -33.941 -2.95306 24.3943 -32.6788 -3.56269 19.7785 -33.8429 -7.17764 20.1101 -34.6661 -8.30104 19.794 -32.5973 -7.62954 19.9992 -31.5073 -7.83003 19.9631 -30.9713 -6.68863 21.2614 -31.675 -6.06839 22.7324 -30.5194 -5.29406 21.4403 -34.0274 -9.4946 20.7658 -25.8486 -11.7922 23.1077 -26.7715 -11.3017 22.2857 -28.0233 -12.2435 22.1332 -25.4855 -11.1282 24.9485 -26.8732 -11.1615 25.3665 -29.4398 -13.198 22.1726 -31.2667 -10.6536 19.6655 -30.2265 -10.0423 18.947 -30.775 -11.8084 20.1046 -32.3012 -11.6126 20.4541 -30.0376 -12.8454 21.0958 -33.1639 -10.6843 21.3557 -29.2033 -11.233 17.9614 -29.0886 -12.4176 16.7507 -28.1627 -14.5886 17.3141 -27.7792 -14.3405 16.0651 -29.0139 -13.6103 16.1488 -26.9555 -13.9903 18.3972 -25.9644 -13.8066 15.8329 -25.4137 -13.7504 18.8952 -25.3065 -14.8599 19.0979 -25.1756 -11.8724 12.2955 -26.1578 -12.3786 11.9678 -26.5669 -10.9554 12.7616 -23.9182 -11.8547 12.7276 -23.7188 -12.478 11.2063 -23.8684 -11.7282 14.5871 -24.6287 -12.557 15.7638 -35.9876 15.3276 3.20036 -35.9903 14.7554 1.30032 -35.9186 13.7655 1.17841 -35.1482 15.8892 4.43504 -34.706 15.7813 5.43352 -33.7642 16.1008 5.5372 -34.2099 15.6074 6.28415 -39.0563 14.1207 0.418023 -39.805 14.8114 -0.435546 -38.0326 15.4675 0.0652107 -38.4341 13.7806 1.27419 -39.2733 12.3487 0.618443 -40.026 11.2834 0.970494 -40.7832 10.1642 1.59719 -44.9406 10.7181 0.490872 -45.0158 9.82598 -0.268267 -45.4625 12.0535 -0.416295 -44.5083 12.219 1.73815 -41.6919 9.63169 1.4059 -40.6401 8.61279 0.729806 -40.8292 8.85886 -0.559533 -40.473 7.90089 -1.07123 -40.5421 7.14713 0.318101 -40.6229 10.3192 -1.51989 -42.1228 9.35207 -1.25234 -40.5698 10.6863 -2.80673 -40.5983 5.70262 -0.126091 -41.1091 5.70208 1.41187 -41.0417 7.18388 -7.4936 -40.138 6.89519 -8.42516 -41.1768 5.44872 -8.21197 -41.4427 8.70375 -9.20184 -42.1456 8.13857 -9.77636 -42.5338 8.94166 -8.10086 -43.2522 7.75111 -10.5258 -43.2368 8.37648 -8.67537 -42.1705 3.95505 -7.99967 -42.3237 9.28581 -5.96806 -42.9397 9.26107 -7.15814 -42.5324 9.28226 -4.75878 -42.9991 9.11185 -3.75003 -43.8366 8.79014 -3.07875 -43.0452 8.63462 -2.38111 -44.8593 10.1486 -3.43185 -43.4835 9.93363 -1.31676 -39.5365 3.41364 -10.2939 -38.1999 3.57815 -11.3478 -38.8738 2.34954 -9.96761 -39.8495 4.65983 -9.95156 -40.1734 5.8852 -10.3963 -41.8213 5.80848 -10.4021 -39.4347 0.808122 -9.54524 -42.875 5.36065 -10.9848 -42.1378 0.468053 -6.94523 -41.4569 1.62619 -7.11183 -42.5897 2.35314 -7.37811 -40.2329 2.70091 -7.46078 -25.8497 12.978 19.7661 -26.3217 13.9621 20.5256 -24.7637 14.0707 20.1697 -27.1508 12.2843 18.6237 -29.0177 12.8314 19.7798 -29.6416 10.4091 18.0343 -29.7028 11.9521 16.9784 -30.3257 9.3362 17.8869 -29.8364 8.57512 18.4849 -28.917 11.8056 16.3774 -31.9893 8.95045 18.0558 -30.8968 9.35641 16.5324 -32.5673 8.74461 19.6275 -26.6807 4.1013 13.4466 -26.5162 2.97953 13.3605 -27.0025 5.31563 13.8824 -28.549 4.62096 13.7775 -28.0073 2.28993 14.0787 -27.7172 1.89308 12.6592 -28.4955 1.6322 15.4164 -27.3506 1.09278 11.5288 -26.9858 1.28641 10.5374 -29.7866 8.8917 15.6034 -30.9255 8.87218 14.9175 -28.4776 8.97233 15.1231 -30.893 7.33926 14.0068 -31.9773 8.76032 13.7502 -31.4298 6.10217 13.9483 -30.0189 5.57645 13.8602 -33.2366 6.53644 5.69857 -34.2627 6.09249 4.97895 -32.7663 7.36719 6.39667 -32.3743 5.7059 6.91347 -36.0241 5.48496 5.50023 -34.119 3.95279 6.73063 -37.1676 5.99451 4.97316 -36.8871 6.01151 3.48468 -40.0657 4.72186 3.51324 -38.498 4.27904 3.68246 -41.2196 5.16912 3.02992 -41.445 4.59376 1.29993 -37.3808 5.69053 2.62793 -37.969 3.59021 4.9662 -32.4573 5.62579 11.6745 -31.7326 7.88883 10.669 -33.0458 8.25067 11.7691 -33.2552 8.62753 12.789 -34.0706 7.62679 13.2233 -32.2563 10.1466 12.9691 -34.5525 6.35161 13.8789 -34.6065 3.32869 9.29826 -34.2041 3.1934 10.5583 -33.6371 3.46606 7.57003 -33.6009 3.47528 11.7867 -26.1807 23.348 28.2793 -26.6248 22.0732 28.773 -26.202 22.8719 29.8458 -25.9274 23.5304 26.9867 -26.2884 24.9955 27.624 -27.0272 26.1908 27.7149 -23.3763 23.5168 28.2013 -23.0483 23.7206 30.5147 -23.8835 24.3398 31.694 -22.7779 23.4996 29.2316 -22.3444 23.1898 28.2573 -24.0878 25.3616 28.7859 -23.8518 24.4575 32.9252 -25.8036 27.469 33.1294 -25.4283 28.436 33.9642 -26.4563 29.299 33.2528 -26.1431 26.8383 32.2832 -25.1968 26.1276 32.0113 -23.8337 28.9829 34.9745 -25.9322 25.2739 31.3353 -21.2153 25.9325 34.7183 -21.4101 24.6263 34.874 -21.0652 27.0235 34.7472 -20.041 27.6321 35.577 -21.0918 28.468 35.1936 -18.4933 27.2947 36.2827 -18.6477 28.5455 35.9411 -22.0971 29.4043 35.0997 -20.1695 29.5771 34.6976 -28.2359 23.7598 33.0751 -28.6736 26.0032 33.484 -30.7694 24.9259 35.54 -30.6651 23.8151 34.6582 -30.2673 23.1774 32.9108 -26.9338 23.4906 32.9653 -32.0397 21.012 30.941 -32.6266 21.8467 32.4115 -30.783 20.77 30.5758 -29.9283 20.4474 30.1693 -32.7208 22.8643 33.6937 -33.6224 22.4629 33.5326 -35.3922 22.9861 33.3471 -36.1394 22.9445 32.0435 -35.7563 22.0778 31.5544 -37.0964 24.3634 31.2683 -37.5935 24.1468 32.9019 -38.0285 24.8754 31.9173 -36.828 22.1607 33.3718 -37.6306 25.1178 34.5119 -37.7719 26.1829 32.6325 -41.5419 25.7666 35.8522 -40.9453 26.8622 35.3921 -40.0089 26.0766 34.896 -38.6102 26.0172 34.6149 -41.4796 26.1187 33.6802 -37.4858 26.2077 34.2575 -36.4999 9.36682 22.3333 -36.6735 8.35145 23.1734 -37.9799 9.63426 23.0377 -35.1229 9.10788 21.4634 -36.1697 10.4893 21.4517 -33.8529 7.77164 21.1809 -32.8824 6.99539 20.4292 -33.4133 6.29827 19.6933 -31.7469 6.47084 19.6882 -33.9819 5.28958 19.0396 -34.0747 4.84957 20.4033 -29.9437 4.78827 19.1757 -29.5148 5.78611 18.8546 -41.1838 10.4899 21.9432 -41.8184 9.8195 22.9002 -43.2229 9.52186 22.1365 -41.3426 11.9556 22.1958 -42.6461 11.7664 21.5414 -39.7123 7.9213 20.2364 -39.779 9.50718 20.9141 -39.1596 7.52323 21.1297 -38.5871 7.08448 21.8224 -36.8956 7.31089 21.0862 -37.7486 6.37502 22.3449 -30.1874 16.0486 22.4541 -31.3141 16.1351 23.1548 -30.1641 15.7917 24.3345 -29.1663 15.4852 21.7615 -30.079 15.2457 20.7402 -32.2818 16.9453 23.4008 -31.8085 17.9119 24.7929 -30.7453 18.5572 26.2777 -33.87 10.9896 19.9866 -32.9064 10.6615 20.8072 -32.1319 11.6496 19.9532 -34.788 11.9273 19.7706 -35.7645 11.0928 20.5291 -30.9377 11.7221 20.7169 -30.7396 12.7021 20.6976 -29.6078 19.902 26.7208 -29.6603 18.3399 26.4606 -30.4348 20.0144 28.8939 -31.8148 20.0659 27.7907 -29.4272 16.7996 26.5762 -28.8253 15.6188 27.4233 -31.4981 20.3405 25.4409 -32.4926 19.7296 26.4511 -31.3477 21.6539 25.5839 -32.8554 22.4098 25.2219 -34.4732 22.249 25.2976 -34.3915 23.5874 23.5954 -5.92834 24.7013 38.0705 -4.936 24.6533 38.1844 -7.17926 24.2447 38.1199 -5.41222 23.9555 37.6493 -7.96472 25.3485 39.2103 -8.76193 23.9068 38.5959 -8.81163 24.9869 38.8204 -8.82238 25.8494 39.3263 -4.68446 22.9479 37.8584 -3.61881 23.6294 37.2331 -4.26865 21.2584 37.8877 -9.64038 23.0409 37.5319 -5.52718 19.4676 39.2018 -5.636 20.3985 37.9827 -6.36426 18.3131 39.4357 -6.80953 17.329 39.7343 -3.72446 20.5941 38.8102 -0.98035 24.9125 38.2262 -2.09907 25.0506 37.5209 -2.2949 23.8319 37.4071 0.105348 26.439 38.1066 -2.08263 26.6934 37.1822 -2.44558 22.5923 37.2374 -2.22704 28.4621 37.5593 0.506049 30.8141 37.9175 1.32649 29.5854 38.6375 -2.28458 30.117 37.2502 2.31845 29.1733 37.8269 -3.07257 29.4514 38.6104 -20.8362 31.7066 42.3975 -19.6193 31.2705 42.0858 -20.898 31.7057 44.0987 -22.0836 31.1311 42.7025 -18.3311 30.1452 44.4922 -18.7157 30.4995 46.0501 -17.7701 29.5184 42.9769 -15.4457 28.6908 41.0603 -16.2229 28.5004 42.1221 -14.4931 27.3503 40.8772 -17.2732 28.3669 42.3199 -17.1051 27.2219 43.2686 -16.1939 26.7616 42.6796 -13.3069 27.3475 41.6649 -14.0951 26.8385 42.3142 -16.93 26.3861 44.6129 -11.218 23.8789 42.3029 -12.4521 24.1859 42.6981 -11.094 24.3661 41.4384 -10.2978 24.0304 41.9418 -12.7417 25.1305 43.7716 -13.1229 24.0821 44.5662 -13.4171 26.5644 43.6161 -10.3479 25.5015 41.1162 -15.0186 26.4402 43.0547 -10.1331 27.5741 39.0312 -9.52079 26.4408 38.6721 -10.7079 27.1199 40.4049 -10.8257 28.0951 40.5924 -11.7073 27.6223 39.0882 -10.6398 27.4606 41.3426 -19.9479 35.0071 39.7233 -20.1029 35.9412 38.0693 -18.9858 35.4596 40.5226 -18.9246 37.0588 40.3283 -18.596 36.7975 41.2359 -19.1567 37.618 41.1242 -19.1992 38.7493 40.6182 -19.9668 35.5883 37.0246 -20.7886 36.97 37.5509 -18.0879 38.0225 41.9389 -19.225 40.6761 44.5574 -20.9377 40.3463 43.9833 -21.0952 40.8963 44.9987 -21.1891 39.5886 42.6145 -22.525 39.607 43.8213 -19.8178 39.4399 41.4065 -18.1304 39.1538 41.4329 -21.0945 42.6901 46.3996 -20.007 43.3338 45.1017 -20.4961 42.2315 47.4948 -21.6792 41.5226 46.2784 -19.9586 43.4487 43.8415 -18.8016 44.2135 44.6555 -20.6194 39.7786 48.5548 -21.4714 38.6921 51.6129 -20.8605 39.8172 51.2536 -21.9571 40.5399 51.9444 -19.9231 39.6475 50.0218 -18.4213 40.6106 49.8946 -22.9074 41.2522 51.7591 -16.6832 28.3075 38.7588 -15.9866 28.044 37.6574 -16.1888 29.4174 37.4714 -15.699 26.5048 37.6579 -17.3165 29.6881 36.5009 -14.6303 26.01 38.8248 -13.1804 26.8749 38.9532 -18.7222 29.576 35.4628 -19.0183 30.706 34.2918 -18.3006 30.0131 34.222 -18.1256 30.9473 33.911 -19.3051 31.7794 35.9951 -18.902 31.2246 37.0303 -21.8597 30.194 37.0687 -22.3577 31.3879 36.0251 -22.0966 33.6156 41.5626 -23.6935 32.9171 41.6737 -21.4654 32.7746 40.7487 -21.8903
[...]
POINT_DATA 1686
FIELD FieldData 1
normals 3 1686 double
-0.388156 0.422908 -0.818831 0.803617 -0.27593 0.527317 -0.224183 -0.464302 -0.856835 0.8302 0.519431 0.202387 -0.281841 0.855957 0.433479 -0.234186 0.935952 -0.262967 -0.387945 0.915401 -0.107421 -0.455731 -0.746316 0.485099 0.00854915 -0.237035 -0.971463 -0.000117147 -0.918956 -0.39436 0.577201 0.718591 -0.3879 0.176413 -0.707062 -0.684793 -0.414887 -0.835267 0.36083 0.53464 -0.641872 -0.549691 0.620582 0.50022 -0.60387 0.236588 0.960095 0.149142 -0.379303 0.706956 -0.596944 0.515472 -0.213968 -0.829763 -0.805445 0.590184 -0.0542399 -0.944152 0.19785 -0.263501 0.217663 0.565763 -0.795321 -0.147206 0.395554 0.906569 0.187666 -0.644852 -0.74091 0.676929 -0.723993 0.132671 0.513054 0.671892 0.534169 -0.822796 -0.200105 0.531944 0.457292 -0.207876 0.86468 0.728256 -0.638439 0.249076 -0.23254 0.387044 0.892257 0.519083 0.30414 -0.798781 -0.763962 -0.619903 0.179116 -0.386665 -0.721413 -0.574503 0.486892 -0.408436 0.772086 0.245929 -0.85226 -0.461706 0.815069 0.153313 0.55871 -0.00815777 -0.970087 0.242621 0.430508 -0.605211 -0.669614 0.659473 0.404717 0.633482 -0.123467 0.73669 0.664864 -0.580233 -0.116452 0.806082 0.575324 0.657875 -0.486007 0.646886 -0.223466 0.72911 -0.346977 0.928583 -0.131684 -0.575864 -0.438011 -0.690309 -0.67594 -0.503837 0.537823 0.79273 0.586894 0.164728 -0.594989 0.553627 0.582654 -0.740604 -0.450613 -0.498451 -0.388577 -0.921045 0.0261642 0.651582 -0.30984 -0.692416 0.880263 -0.23377 0.412903 -0.646013 -0.0380146 0.762379 -0.142863 -0.803223 0.578293 -0.216608 0.966283 0.139203 0.371662 -0.880854 -0.293197 -0.25702 -0.303668 -0.917457 0.519521 -0.0892641 0.849782 0.902994 0.158811 -0.399225 -0.331702 0.889046 -0.315548 0.687656 0.68752 0.233338 0.911802 0.37514 0.166993 0.854201 -0.44756 0.264635 0.74699 0.661943 0.0619464 0.871209 -0.0631398 -0.486835 -0.111035 -0.569361 -0.814555 -0.520173 0.853809 -0.0207321 0.386184 0.0808575 0.918871 0.585591 -0.542441 -0.602364 -0.336427 0.0455834 0.940606 -0.4239 -0.874392 0.236109 -0.0483807 0.176277 0.983151 -0.05106 -0.395855 -0.916892 -0.12275 0.594074 -0.794989 0.887808 0.385397 0.251526 -0.445687 -0.493383 0.746951 0.496189 -0.173823 0.850636 0.941876 0.319561 0.103683 -0.187077 -0.827917 0.52873 -0.935754 -0.137272 -0.324839 0.836575 0.518841 0.175918 0.809238 0.487769 0.327439 -0.0299342 -0.944096 -0.328309 -0.722785 -0.121213 0.68036 -0.0343929 -0.997967 -0.0536647 -0.531099 0.846593 -0.0348495 -0.606226 -0.0455252 -0.793988 0.00925745 0.488852 -0.872317 -0.481706 0.872374 -0.0832089 0.874323 -0.465423 0.137628 -0.177536 0.553484 0.813718 -0.366726 0.79956 -0.475622 -0.0105081 -0.158415 -0.987317 -0.0795945 -0.912168 0.402012 0.573072 0.66077 -0.484739 -0.92681 -0.306356 -0.217183 -0.519996 -0.293677 -0.802096 0.0233667 -0.532347 -0.846204 -0.487342 -0.532882 0.691761 -0.263163 0.865971 0.425253 0.640626 0.577281 -0.506305 -0.398223 -0.869195 -0.293117 -0.285331 0.664697 0.690482 -0.988255 0.0995221 0.115963 -0.805816 -0.426787 0.410504 -0.118358 -0.486983 -0.865355 -0.102888 0.138387 0.985019 -0.595482 -0.624465 0.505416 0.216153 -0.721451 0.657865 -0.399923 -0.746197 -0.532214 -0.424926 0.717901 0.551413 -0.0417466 -0.888312 0.457338 -0.795733 0.566601 0.213944 -0.00436734 0.411086 0.911586 -0.226934 0.791812 -0.56704 -0.433883 0.887925 0.152761 -0.830692 0.39226 0.395073 0.505907 0.55677 -0.658837 -0.167986 -0.671837 0.721399 0.517713 0.85393 -0.0526935 -0.841634 0.371444 -0.392022 -0.806234 -0.448168 0.386176 -0.392945 -0.869584 -0.29903 -0.247513 0.000341577 -0.968884 -0.27547 0.90763 -0.316738 0.956402 0.250506 0.150138 -0.17634 0.977453 -0.116145 0.267563 0.82421 -0.499087 -0.39204 -0.481309 -0.783994 -0.864071 0.502772 -0.0245338 0.693942 0.611321 -0.380435 -0.909064 -0.212385 -0.358462 -0.706141 0.0195425 -0.707802 0.212505 -0.93788 0.274266 0.151302 0.605075 -0.78166 -0.896605 -0.135049 -0.421735 -0.407286 -0.896126 0.176286 -0.634459 0.751549 -0.180657 -0.766957 -0.250699 0.5907 0.325536 0.155264 -0.932695 0.18891 0.0448619 0.980969 -0.885609 0.433553 0.166521 -0.721039 -0.688216 0.0803796 0.563817 0.780784 0.269234 -0.982628 0.0861065 0.164404 -0.770152 -0.00138231 0.637859 -0.480026 -0.398229 -0.781658 0.281962 -0.656348 0.699789 0.846593 -0.402077 -0.348733 -0.481709 0.595715 -0.642713 0.784615 -0.619973 0.00361579 -0.354316 -0.639501 -0.682275 0.524377 0.700599 -0.483931 0.386828 -0.893417 -0.22841 -0.697388 0.527643 -0.485019 -0.923599 -0.343668 0.169874 0.487312 -0.869389 0.0817834 0.225069 -0.10005 0.969192 -0.80111 -0.543998 0.24958 0.245177 0.930805 -0.271092 0.637194 -0.730485 0.245714 -0.960284 -0.0635306 0.271697 0.953045 -0.301947 -0.0230669 -0.183196 0.573076 -0.798763 0.463745 -0.556075 -0.689726 -0.777052 0.447172 0.442975 0.790695 0.00435081 0.612195 -0.376817 8.26998e-05 -0.926288 0.151394 -0.575446 -0.803705 0.957514 -0.235096 0.167022 -0.261765 -0.693186 0.671545 0.28044 -0.714754 0.640687 -0.523266 0.64541 0.556452 -0.789952 -0.283566 0.54366 0.580568 0.660427 0.476211 -0.234807 -0.340316 0.910522 0.41835 0.858668 -0.296097 -0.247105 -0.934866 -0.25488 0.498216 -0.0474173 -0.865755 0.900641 -0.18271 0.394288 0.471171 0.184788 -0.862468 -0.297467 0.464596 0.834065 -0.339485 0.674813 -0.655269 -0.783538 -0.599977 -0.161542 -0.360786 0.198698 0.911237 0.592795 -0.492427 -0.637267 0.231857 0.97275 -2.04621e-05 -0.970681 0.222513 0.0909243 0.747843 0.608702 0.264975 0.121002 -0.84703 -0.517589 -0.714258 -0.227815 0.661767 0.149374 0.625961 -0.765415 0.284109 -0.935745 -0.208955 -0.320936 -0.474092 -0.819901 0.745936 0.345496 0.569396 0.434217 -0.863405 -0.256882 0.809503 0.103647 0.577894 -0.218495 0.966671 -0.133442 -0.77366 0.232743 -0.589305 0.172613 -0.477954 -0.861257 0.785168 0.44326 0.432473 -0.907991 -0.37577 0.185334 0.12277 0.561013 -0.818652 -0.071976 -0.745148 -0.663004 0.027381 0.530035 0.847534 0.996752 0.0785473 -0.0177605 -0.0540015 0.914403 -0.401188 0.550978 -0.415977 0.723455 0.396577 0.834811 0.381859 -0.951355 0.0219061 0.307318 0.976267 0.194708 -0.0948196 0.522312 -0.496924 -0.693005 0.851854 -0.161723 -0.498187 0.113225 -0.987407 0.11049 -0.00889356 -0.123383 -0.992319 0.406689 -0.514325 -0.755032 0.779732 0.227643 0.583263 0.415068 -0.768077 -0.487623 -0.171832 0.0666317 0.98287 0.841597 0.52606 0.122375 0.0131984 -0.84859 -0.528886 0.0776478 0.950999 0.299284 -0.823953 0.549549 0.138193 -0.94581 -0.0263238 -0.323653 -0.198537 0.015281 0.979974 0.184607 -0.851449 0.490872 -0.608846 -0.4341 0.663976 0.111741 0.217524 0.969638 -0.323276 0.946186 -0.0149641 -0.49003 -0.799079 0.348343 -0.148925 0.75351 0.640347 0.579871 0.361275 0.730226 -0.9649 -0.223592 0.137752 -0.368295 0.872033 -0.322361 0.568029 0.0864514 -0.818456 0.830674 -0.145878 0.537308 -0.388785 -0.81503 0.429618 0.29378 0.33643 -0.894711 0.827166 0.416013 -0.377796 0.653544 -0.599354 0.462228 -0.652847 0.683453 0.326623 0.549787 -0.674957 -0.492106 -0.497015 0.706501 -0.503818 0.720251 -0.661285 0.209621 0.250249 -0.114966 -0.961331 -0.781203 -0.582154 0.225429 0.885286 -0.409581 0.220255 0.212635 -0.426531 -0.879123 0.11981 -0.86654 0.484514 -0.142346 0.414698 -0.898756 0.571175 0.583142 0.577672 0.165216 -0.0706994 0.98372 -0.799766 -0.599718 -0.0267102 -0.604722 0.302071 -0.736929 -0.958407 -0.0704926 0.276562 -0.345096 -0.118774 -0.931022 0.973738 0.150451 0.170878 0.140883 -0.106114 0.984323 -0.421026 -0.548514 0.722406 0.993515 0.109758 -0.0296944 0.697954 0.116651 -0.706579 -0.155009 -0.819213 0.552143 0.166741 -0.128722 -0.977562 -0.960007 -0.0422146 -0.276777 0.190033 -0.385636 0.902869 0.854309 -0.43464 0.285034 -0.0584182 -0.674182 -0.736252 -0.00765085 0.85244 0.522769 0.480864 0.114171 0.86933 0.582365 0.531117 0.615439 -0.992325 9.12478e-05 0.123655 -0.0286892 -0.328029 0.944232 0.745755 0.660082 0.0902272 0.074378 0.937599 -0.339669 -0.902201 0.103084 0.418816 0.448514 -0.587586 0.673483 0.646605 0.392408 0.654155 0.555172 0.813687 -0.17233 0.502628 -0.748484 -0.432594 0.519731 -0.415569 0.746447 -0.860298 -0.364107 -0.35681 -0.26948 -0.791737 0.548209 0.871347 -0.389094 0.298931 0.811934 0.583107 -0.0273717 -0.182522 -0.027796 0.982809 -0.661538 0.7303 0.170379 -0.846105 0.0256043 -0.5324 -0.771682 -0.186389 0.608084 -0.44727 -0.742065 -0.499289 -0.476213 -0.69775 -0.535131 0.516121 -0.74576 -0.421261 -0.774706 0.241184 0.584517 0.992335 -0.0480103 0.113869 -0.0107535 0.86255 0.505858 -0.80797 -0.579134 -0.108571 -0.857667 0.500948 0.11601 -0.846914 -0.361601 -0.389849 -0.264583 -0.959647 0.0952584 0.801074 -0.27813 -0.530022 0.680398 -0.729869 -0.0659549 -0.0704798 -0.286716 -0.95542 0.144653 -0.964651 0.220283 0.0358395 -0.0337367 -0.998788 -0.981729 -0.189794 0.0136699 0.536459 -0.794385 0.284892 -0.136211 0.0656318 0.988503 0.791712 0.599955 0.115092 -0.327011 0.738022 -0.590244 -0.522835 -0.480632 -0.704014 0.293986 0.926551 -0.234683 0.343451 0.904863 0.251524 0.372155 -0.758928 0.534349 -0.487855 0.863834 0.125654 -0.390244 0.336406 -0.857054 0.430193 -0.892283 -0.136986 -0.430315 -0.791051 0.434818 0.561771 0.480152 -0.673697 -0.357679 0.125472 0.925377 -0.547102 -0.0939147 0.831781 0.669751 -0.53001 0.520118 0.485244 0.0930326 0.869415 -0.700393 -0.481638 -0.526759 0.745843 -0.174487 -0.642863 0.361192 0.17978 0.914997 -0.184833 -0.452331 -0.872487 0.408705 -0.642233 -0.648457 -0.368567 -0.832634 0.413375 0.543897 -0.698257 0.465417 -0.681707 0.699154 -0.215546 -0.513616 -0.445862 0.733079 0.397642 -0.90616 0.144069 0.642266 0.695454 0.322238 -0.145928 0.186454 0.971566 0.68872 -0.389917 0.611252 0.796181 -0.335717 0.503378 -0.437955 -0.0287538 0.898537 0.92015 0.151414 -0.361107 0.123968 0.487131 -0.864485 0.148392 0.973334 0.174933 -0.232829 -0.0750939 0.969614 -0.823862 0.460566 -0.33035 -0.17408 0.983964 0.0388671 -0.777599 -0.584757 -0.231081 -0.760788 0.180391 0.623426 -0.148504 -0.952932 0.264325 0.185922 -0.634522 0.75021 0.0681412 0.340655 0.937716 -0.813428 -0.132125 -0.56646 -0.11778 0.975177 0.187506 0.340232 -0.326197 0.881951 0.185292 0.607933 -0.772065 0.621895 0.778724 -0.0826789 -0.560675 0.820472 -0.111666 -0.23209 0.559132 0.795931 0.328584 -0.261339 0.907598 0.286048 0.869978 0.40164 -0.0492148 -0.960842 -0.272691 -0.870976 0.420815 0.253604 0.740248 0.665886 -0.0928935 0.99463 -0.0999918 0.0266882 -0.718058 -0.429758 -0.547449 -0.875523 0.120157 0.467998 0.466661 -0.328026 -0.821357 -0.869233 -0.309627 0.385441 0.904634 0.179367 -0.386608 0.782785 -0.46543 0.413065 -0.293299 -0.661275 0.690429 0.794197 -0.0175816 -0.607406 0.891651 0.202644 0.404839 -0.291465 -0.50623 -0.811652 -0.74584 0.132411 -0.652833 0.411153 0.897215 0.161119 0.696139 -0.483084 0.531056 0.3269 -0.942928 0.0634254 0.937714 0.182196 -0.2958 -0.158883 0.90486 0.394949 -0.000227044 -0.351964 -0.936014 -0.46799 0.396697 -0.789694 -0.791365 -0.192591 -0.580215 0.687452 0.531531 -0.494858 0.00918775 -0.794994 -0.606547 -0.192999 0.578435 -0.792568 0.278455 -0.744239 0.6071 -0.934667 -0.307798 -0.177928 0.790195 0.249481 0.559778 0.659697 0.615358 -0.431434 -0.471063 0.195751 -0.860105 0.174959 0.934178 -0.310966 0.892645 0.241314 -0.380727 0.717685 -0.692865 -0.0697608 0.848144 0.165574 0.503227 -0.444985 -0.720398 0.531992 -0.747548 0.604455 -0.275331 0.249543 0.589417 -0.76832 0.949225 -0.0363509 -0.312492 -0.64774 -0.734778 -0.201333 -0.318041 -0.804653 -0.501381 -0.106826 0.702965 -0.703156 -0.422717 -0.878302 0.223374 -0.989388 -0.136741 0.0491271 -0.764665 0.643221 -0.0394142 -0.463653 -0.26388 -0.845809 -0.0462081 -0.895708 0.442236 -0.423572 -0.204676 0.882437 0.321092 -0.944207 -0.0732993 0.615337 0.155847 -0.772704 -0.0355258 -0.602958 -0.796982 -0.650863 -0.758807 -0.024279 -0.614996 0.788137 0.0249067 -0.651213 -0.396387 0.647147 0.0010978 0.976814 0.214085 0.544777 0.336594 0.768064 0.288769 -0.628974 0.721807 -0.256008 -0.965567 -0.046257 0.173092 -0.982536 -0.0682811 0.936393 0.337203 -0.0972797 0.965125 -0.197633 -0.171682 0.300301 0.950443 -0.0804797 0.388412 0.121981 0.913377 0.552036 0.00674757 -0.833793 0.82041 -0.0574597 0.568881 -0.163925 0.0750245 -0.983616 -0.328388 0.336807 0.882453 0.622152 0.77829 0.084807 -0.366804 -0.509935 0.778088 -0.893906 0.447841 0.0192542 0.987927 -0.118082 -0.100283 0.00353505 0.519193 0.85465 0.187377 0.98221 -0.0124247 -0.447979 -0.816652 -0.36386 0.183842 0.463018 -0.867074 -0.239594 -0.15007 0.959205 -0.0220429 -0.150084 -0.988428 -0.908496 -0.274733 -0.314892 0.138413 0.225359 -0.964394 -0.383181 0.920586 -0.075454 -0.162556 0.542406 0.82424 0.933083 -0.350454 -0.0808603 0.160022 -0.384299 0.909234 -0.127627 0.652155 -0.747265 -0.827581 -0.41657 -0.37627 0.948905 0.124839 -0.289819 -0.0368979 -0.00262841 0.999316 -0.23134 0.856162 0.462026 0.0789094 -0.168232 0.982584 0.0798734 -0.727933 0.68098 0.716722 -0.0116387 -0.697262 -0.0780639 0.62794 -0.774337 -0.601582 -0.57449 -0.555032 0.859498 0.148303 0.489151 0.488244 -0.2379 -0.839655 -0.527075 -0.184907 0.829459 -0.0128274 -0.0726667 0.997274 0.484867 -0.182604 -0.855313 0.303598 -0.946939 -0.10552 0.918039 0.199759 -0.342492 0.475734 0.647818 0.594986 0.82172 -0.190352 -0.537162 0.851575 0.484509 0.200179 0.0298551 0.674861 0.737341 0.758319 -0.52934 -0.380463 -0.96458 -0.25786 0.0556244 0.0518342 -0.997163 0.0545844 0.00129632 0.23489 -0.972021 -0.930928 0.31239 -0.189172 -0.711775 -0.582174 -0.393001 0.263164 0.334517 0.904899 -0.00773505 -0.992318 0.12347 0.872046 0.488812 -0.0244829 -0.406744 0.874819 -0.263154 0.878562 0.473041 0.0660438 0.313999 -0.771338 -0.553573 0.673667 0.701177 -0.233503 0.774738 -0.0768803 0.627591 0.835181 0.0453408 0.548103 -0.331275 -0.863173 0.381037 -0.261537 -0.324603 -0.908973 -0.590871 0.479059 0.649133 0.371245 -0.257461 0.892127 0.469544 -0.592365 0.654701 -0.668614 0.720105 0.185483 0.453309 0.446357 0.771541 -0.371837 -0.594685 0.712802 -0.85349 0.251983 -0.456136 -0.66808 0.352126 0.655497 0.727533 0.333253 -0.599698 -0.836878 0.535007 0.115769 -0.688666 0.482523 -0.541212 0.733284 0.674875 -0.0826927 -0.843915 -0.283305 -0.455571 0.326209 0.581049 -0.745633 -0.150886 0.812885 -0.56254 -0.186847 -0.795326 -0.576667 -0.439626 -0.334624 0.83352 -0.173187 -0.950827 -0.256776 0.359299 -0.358632 -0.861561 0.453146 -0.432713 0.77937 0.532486 0.592194 -0.604784 0.746522 0.257604 -0.61347 0.541911 0.743341 0.392144 0.824951 -0.558855 0.0844743 -0.249437 0.0260276 -0.968041 -0.557913 -0.687067 -0.465479 0.985332 -0.154603 -0.0722391 -0.662777 0.279273 0.69479 -0.96091 0.12478 -0.247149 -0.298133 -0.154493 -0.941939 -0.0897359 -0.995933 -0.0080681 -0.630867 -0.639461 0.439428 0.644473 0.21458 0.7339 0.982367 -0.182765 -0.0393861 -0.342835 0.18868 0.920252 -0.0243265 0.285537 -0.958059 -0.157997 0.935501 -0.316029 -0.420844 0.161869 -0.892574 -0.262846 -0.773633 -0.576545 -0.874644 -0.406753 0.263722 -0.988975 -0.0267772 -0.145642 -0.992501 -0.114927 0.0416392 -0.173212 0.140012 -0.974882 -0.201692 -0.320568 0.925503 0.681307 -0.731895 -0.0122633 0.177579 0.953704 -0.242722 0.994758 -0.0668533 -0.0773766 -0.286001 0.848324 0.44559 -0.228799 0.695581 0.681041 0.886617 0.462486 -0.00411742 -0.995387 0.0954275 -0.00994845 -0.195542 -0.400347 0.895257 -0.0361866 0.562646 -0.825905 -0.861033 -0.399071 -0.315223 0.642123 0.537156 -0.546938 -0.937775 0.0463092 0.344143 -0.767101 0.569755 -0.29485 -0.370073 0.177118 0.911962 0.378135 -0.555164 -0.740815 0.644922 -0.74073 0.188134 0.972424 -0.210863 -0.0996436 -0.114662 -0.895625 -0.429777 0.145114 0.0144697 -0.989309 0.33895 0.0639365 -0.938629 0.176494 0.0706099 0.981766 -0.956073 0.06807 0.285116 0.157922 0.821597 0.547758 0.0477354 0.857693 -0.511942 0.908402 0.384578 0.164029 -0.525768 0.67424 0.518621 0.291558 -0.118034 -0.949243 -0.146487 0.40717 -0.901529 -0.431584 0.514386 0.741041 -0.795747 0.55105 -0.251257 0.936392 0.273649 -0.219742 -0.200593 -0.779094 -0.593949 0.808729 -0.0440602 -0.586529 0.863899 -0.347284 0.364792 -0.741169 0.58785 -0.324194 -0.159359 -0.965849 -0.204306 0.461163 -0.648147 0.605998 0.0551701 -0.303223 0.951321 0.024747 -0.999188 0.0317966 0.476505 -0.433788 0.764703 -0.934237 -0.334844 0.122804 0.594082 0.105134 -0.797504 -0.163488 0.850707 0.499569 0.180642 -0.473744 -0.861937 0.248525 -0.891499 0.378767 -0.917518 0.160497 -0.363871 0.175393 0.842117 -0.509977 0.914825 0.348229 -0.204528 -0.675196 -0.686651 -0.269484 -0.922497 -0.36677 -0.120331 -0.0567962 -0.541063 -0.839062 -0.989096 -0.138389 -0.0503686 -0.876174 -0.410114 0.253231 -0.793559 -0.304773 0.526666 -0.521337 0.850076 -0.0746864 0.358748 0.42714 -0.829971 0.526191 -0.249416 -0.812967 0.846674 -0.30886 0.4333 0.296823 -0.921356 -0.250995 -0.694222 -0.0999347 0.712789 -0.628919 0.764913 0.13917 0.46877 -0.410545 0.782117 -0.171839 0.810503 0.55996 -0.995263 0.0836223 -0.0495876 0.994423 -0.0560916 0.0893069 -0.202234 0.199084 0.958888 -0.978519 0.204171 0.0285513 -0.253036 0.128787 0.958847 0.486406 0.335113 0.806913 -0.410553 -0.892227 0.188089 0.665942 -0.675379 -0.316834 -0.193681 0.407279 0.892531 -0.533882 -0.815934 -0.221862 0.158857 -0.986916 -0.0275875 -0.637982 0.146248 -0.756036 0.955536 0.153373 -0.25185 0.847208 -0.0555805 0.528346 -0.139618 0.835623 0.531263 -0.295293 -0.841908 -0.451656 0.386062 -0.919781 -0.0704239 -0.132278 -0.486849 0.863412 0.45332 0.872333 -0.18313 -0.0919752 -0.377871 -0.921278 0.558161 0.497856 0.663774 -0.706786 0.699568 -0.105159 0.823908 0.514593 -0.237421 0.631302 -0.684671 0.364256 -0.851598 -0.423386 0.309072 -0.5003 0.718491 -0.483188 -0.340977 0.296889 0.891959 0.589052 0.804787 0.0730396 0.730118 -0.585175 -0.352842 0.677026 0.218739 0.702701 -0.602082 -0.244206 -0.760171 0.449889 -0.72078 0.527329 -0.178256 0.666735 0.723664 -0.800801 0.203577 0.563272 0.365971 0.656356 0.659744 0.224486 -0.480368 0.847851 -0.922012 -0.337656 0.189426 0.993901 -0.0480919 0.0992391 0.825026 -0.365466 0.431007 -0.0879088 -0.826836 0.55553 -0.538683 0.652089 -0.533479 0.495354 -0.675852 0.545755 -0.860428 -0.48042 -0.169885 0.830605 0.489494 -0.265501 -0.572451 0.350602 0.7412 0.317664 -0.926233 0.202934 -0.14481 0.0534483 -0.988015 -0.728085 0.675173 -0.118463 0.4621 -0.498589 0.733398 -0.308548 0.796809 0.519513 0.380508 -0.529799 -0.757976 0.706715 -0.360385 0.608833 -0.775926 -0.511149 0.369683 0.60176 -0.598253 0.52913 0.693926 -0.485207 -0.532015 0.614399 0.726483 -0.307793 0.739217 -0.622613 0.256731 0.507762 0.499775 -0.701714 -0.861333 -0.383631 0.333067 -0.691436 0.553198 -0.464637 0.526289 0.0260357 0.849907 0.246306 -0.852056 0.46188 -0.279983 -0.878092 -0.388027 -0.599808 -0.482718 -0.638133 0.0545693 0.990914 -0.122928 -0.521683 0.139295 -0.841691 0.496629 -0.726782 0.474497 0.975552 -0.150936 0.159742 0.673234 -0.0957738 -0.7332 -0.72588 0.600306 0.335755 0.446376 -0.0112172 0.894775 0.984648 -0.161787 0.0655152 -0.404745 0.805001 -0.433769 -0.861785 -0.440824 0.251 0.875171 0.322037 0.361064 -0.646904 0.101226 -0.755823 0.290046 -0.17734 -0.940438 0.376136 -0.501134 0.77935 -0.109736 -0.473594 0.87388 -0.821629 -0.570018 0.00227409 0.574857 0.743232 0.342266 0.723042 0.480564 -0.496254 -0.0708708 0.506529 0.859305 -0.639635 0.749136 0.172225 0.131319 -0.930888 -0.340885 -0.650151 0.0217535 -0.759493 -0.896485 -0.285129 -0.339139 0.396866 0.707801 0.584393 -0.829608 0.553655 -0.0722258 -0.78199 0.0117599 0.62318 0.386841 0.472257 -0.79204 -0.605993 0.712916 -0.352879 -0.873196 -0.408493 0.265824 0.601877 0.60491 0.521371 0.834375 0.494764 0.242953 -0.580724 0.811803 -0.0611156 -0.120535 0.978977 0.164547 -0.632797 0.528013 -0.566366 0.324307 0.939401 0.111138 -0.601759 0.749405 0.276185 0.887081 0.0990486 -0.450862 -0.780443 -0.429518 -0.454338 -0.239899 0.711451 0.66052 0.477869 0.535051 0.696679 -0.488187 0.784847 -0.381692 -0.282755 -0.248528 -0.926436 -0.24636 -0.954799 -0.166333 0.14786 0.727794 -0.669666 -0.603682 0.397543 -0.691034 -0.811154 -0.56853 0.137122 0.646838 0.0907332 -0.757211 -0.81866 0.514623 0.254869 -0.43365 -0.157646 0.887184 0.385009 -0.672268 0.632316 0.586776 -0.492903 0.642449 0.218268 0.935377 0.27826 -0.71341 0.17