# vtk DataFile Version 4.0
Generated by libgran
ASCII
DATASET POLYDATA
POINTS 1686 FLOAT
-32.9089 2.25758 6.47134 -31.5022 1.42116 7.49243 -33.7938 2.40928 4.92912 -32.5857 3.28356 5.91786 -33.7299 -0.935432 7.76141 -34.4097 3.01066 3.95675 -30.7522 0.229264 12.1415 -30.41 -1.45286 12.5541 -31.4488 0.884386 11.2175 -31.5604 -0.170532 9.77651 -31.1521 1.51641 9.82637 -30.6708 1.70679 8.62186 -29.6533 -3.11778 14.9698 -28.9377 -2.65532 13.949 -29.0828 -1.51997 14.017 -28.6027 0.117237 13.6131 -27.9458 0.411851 14.3072 -28.0878 1.04762 12.9388 -31.3838 -3.86786 13.0985 -33.1639 -4.7847 14.6695 -32.2149 -4.12109 14.016 -32.2072 -4.56287 15.7081 -34.0057 -5.29169 13.7666 -31.4294 -4.88308 16.5804 -31.7813 -3.61351 17.2135 -32.0711 -3.23216 18.3207 -30.7793 -3.10236 18.5731 -30.219 -4.56838 21.2491 -31.3999 -3.81089 21.8972 -30.6644 -3.71342 20.1999 -29.9466 -5.75203 21.7902 -30.785 -7.34765 21.6155 -31.1236 -3.74031 23.5567 -29.9142 -4.07547 18.8655 -30.1457 -8.07522 19.6568 -30.7542 -9.36288 19.5503 -28.8367 -8.27704 19.5393 -27.7332 -8.22637 19.4424 -27.4241 -6.81855 20.537 -28.1779 -6.18187 21.9758 -27.3192 -5.34585 20.5033 -29.8557 -10.2642 20.626 -21.4837 -12.5103 23.1724 -22.4179 -12.1198 22.3106 -23.7294 -12.9863 22.3898 -20.9857 -11.5415 24.8383 -22.3491 -11.402 25.3109 -25.1958 -13.8184 22.6663 -27.0234 -11.6881 19.7694 -26.0233 -11.3228 18.8539 -26.576 -12.7454 20.4402 -28.0659 -12.3695 20.7993 -25.8379 -13.6218 21.5754 -28.8982 -11.2249 21.4441 -25.1739 -12.768 18.0627 -25.237 -14.1786 17.1202 -24.4698 -16.2707 18.0862 -24.1883 -16.3533 16.7891 -25.3239 -15.473 16.7925 -23.088 -15.6265 18.901 -22.3652 -16.0965 16.2962 -21.5048 -15.4898 19.298 -21.5536 -16.486 19.8354 -21.7033 -15.1825 12.2741 -22.7756 -15.5814 12.1344 -22.8924 -13.9477 12.5091 -20.4281 -15.2643 12.6418 -20.4504 -16.3032 11.3524 -20.213 -14.6695 14.3957 -20.9384 -15.0637 15.7986 -36.6514 16.3391 3.55725 -37.3121 15.8145 1.76122 -37.3164 14.8264 1.60723 -35.4278 16.8494 4.44443 -34.6788 16.7064 5.23357 -33.7476 17.0002 5.01808 -33.9309 16.5 5.86436 -40.5308 15.349 1.9202 -41.48 16.0808 1.34614 -39.6115 16.6477 1.24619 -39.6827 14.9713 2.53168 -40.7591 13.5884 2.19507 -41.4722 12.582 2.74642 -42.1044 11.5194 3.57711 -46.4008 12.2037 3.81188 -46.7687 11.2495 3.23575 -47.1981 13.4995 3.06082 -45.5573 13.7571 4.74462 -43.056 11.0384 3.67207 -42.3008 9.95246 2.74897 -42.8835 10.1783 1.57926 -42.7202 9.20376 1.00483 -42.3581 8.47766 2.36308 -42.967 11.6209 0.574476 -44.3222 10.6813 1.30762 -43.309 11.9693 -0.672578 -42.5583 7.02556 1.99103 -42.5786 7.06344 3.611 -45.0584 8.39539 -4.89995 -44.4261 8.08675 -6.0282 -45.393 6.65686 -5.5408 -45.8634 9.90701 -6.466 -46.6978 9.3485 -6.8339 -46.6322 10.1725 -5.12518 -47.9649 8.9728 -7.26958 -47.4667 9.61396 -5.49309 -46.3245 5.18351 -5.06651 -45.8772 10.5317 -3.12216 -46.7783 10.5067 -4.11404 -45.762 10.545 -1.90048 -45.922 10.4003 -0.796893 -46.517 10.107 0.106125 -45.5516 9.95477 0.532814 -47.5836 11.4762 0.0484842 -45.6321 11.2848 1.64499 -44.3877 4.57922 -7.96929 -43.4336 4.69275 -9.38388 -43.6305 3.54178 -7.80111 -44.5729 5.83118 -7.56131 -44.9838 7.05855 -7.92043 -46.5772 7.00726 -7.4964 -43.9615 2.00781 -7.16366 -47.7512 6.57078 -7.78223 -45.9807 1.76736 -3.82503 -45.3712 2.95365 -4.05713 -46.5525 3.61273 -4.28624 -44.2256 4.08194 -4.4925 -25.0658 13.7116 19.958 -25.6227 14.4803 20.8891 -24.2298 15.0203 20.3109 -26.3315 12.7652 18.9673 -28.0337 12.707 20.4997 -28.4198 10.3446 18.3589 -28.9846 12.0342 17.7883 -28.9249 9.19999 18.0838 -28.1752 8.46192 18.3474 -28.3356 12.2137 17.049 -30.4081 8.446 18.5037 -29.8085 9.34275 16.9177 -30.5309 7.82927 20.0693 -25.9868 5.07709 12.5871 -25.747 3.99525 12.3322 -26.3507 6.15046 13.2825 -27.8593 5.39109 13.102 -27.1359 3.10841 13.0391 -26.8937 2.88928 11.5728 -27.4579 2.34974 14.3736 -26.5382 2.16359 10.3897 -26.2118 2.38868 9.39147 -28.9337 9.25508 15.6773 -30.2025 9.1887 15.2853 -27.8405 9.62094 14.8887 -30.2719 7.8435 14.1166 -31.4561 9.18971 14.3316 -30.7599 6.60358 13.9013 -29.3635 6.20723 13.4917 -33.723 7.36897 5.5179 -34.9086 6.91576 5.12177 -33.0654 8.23489 5.98303 -32.6175 6.61295 6.57406 -36.4924 6.46926 6.1394 -34.4165 4.84179 6.87428 -37.6857 7.08424 5.93256 -37.8239 7.08328 4.42409 -40.9779 6.07059 5.34677 -39.468 5.48701 5.0975 -42.2005 6.56966 5.20083 -42.9356 5.95625 3.63301 -38.564 6.80582 3.74871 -38.6766 4.77025 6.221 -32.1161 6.4436 11.7563 -31.7078 8.92449 11.1452 -32.8221 8.95953 12.4952 -32.877 9.12291 13.589 -33.5524 7.99355 13.9401 -31.957 10.6676 13.9136 -33.8279 6.5787 14.3989 -34.4438 4.03226 9.43537 -33.8228 3.86654 10.5994 -33.7895 4.3113 7.58082 -33.041 4.09904 11.7337 -25.6648 23.0099 29.1354 -26.0644 21.7495 29.6991 -25.6807 22.6238 30.7266 -25.4083 23.1273 27.836 -25.829 24.6119 28.3857 -26.613 25.7814 28.4019 -22.8681 23.2803 29.0638 -22.565 23.6275 31.3634 -23.4314 24.2803 32.5015 -22.277 23.3444 30.0965 -21.825 22.9965 29.1437 -23.6528 25.1268 29.5381 -23.4155 24.4753 33.7231 -25.4715 27.404 33.754 -25.1506 28.4124 34.562 -26.1774 29.2182 33.7849 -25.7835 26.7179 32.941 -24.8112 26.0277 32.7111 -23.6068 29.043 35.6023 -25.512 25.114 32.0783 -20.9292 25.9826 36.2246 -21.0142 24.7227 36.6416 -20.8289 27.0637 36.0379 -19.8716 27.8393 36.8057 -20.8857 28.5679 36.1809 -18.3858 27.6698 37.6838 -18.5082 28.8245 37.0865 -21.8771 29.4536 35.8221 -19.9231 29.5662 35.5456 -27.767 23.6116 33.8917 -28.2929 25.8578 34.1715 -30.3545 24.8158 36.2792 -30.2008 23.6588 35.4668 -29.7706 22.9343 33.7614 -26.4551 23.3854 33.8042 -31.4432 20.5908 31.9125 -32.0723 21.4819 33.3315 -30.1762 20.3814 31.5634 -29.3073 20.0729 31.1764 -32.2141 22.565 34.5543 -33.0983 22.1198 34.4125 -34.8859 22.5617 34.1908 -35.622 22.4083 32.8892 -35.206 21.5255 32.4594 -36.6097 23.7452 32.0188 -37.1225 23.6118 33.6565 -37.5674 24.2639 32.6238 -36.2916 21.6885 34.2626 -37.2148 24.6774 35.2032 -37.3645 25.6205 33.2605 -41.1644 25.2825 36.4549 -40.5955 26.3651 35.9331 -39.6287 25.5797 35.4991 -38.225 25.5476 35.2389 -41.0791 25.8198 33.7172 -37.1025 25.7541 34.8842 -33.8263 6.94592 23.5532 -33.6188 5.76442 24.1257 -35.1324 6.71194 24.552 -32.6506 7.19641 22.4242 -33.9142 8.26925 22.9309 -31.2347 6.29922 21.6066 -30.3522 5.9059 20.5221 -30.907 5.21672 19.7964 -29.3661 5.78228 19.461 -31.4493 4.23022 19.0888 -31.0662 3.55381 20.296 -27.4751 4.65854 18.2418 -27.3173 5.75891 18.0251 -38.612 6.95658 24.3571 -38.8306 5.99289 25.2468 -40.2983 5.49613 24.7534 -38.986 8.26969 24.9681 -40.3508 7.88165 24.5808 -37.1569 5.17281 21.8319 -37.3575 6.54835 22.8545 -36.3238 4.77382 22.4711 -35.5162 4.37719 22.9075 -34.1566 5.15432 21.9066 -34.4484 3.81153 23.0465 -29.5356 15.4957 23.4674 -30.5703 15.4082 24.298 -29.2507 15.1782 25.3169 -28.5168 15.1831 22.6285 -29.482 14.7676 21.718 -31.5908 16.1188 24.6251 -31.1452 17.1628 25.9695 -30.0821 17.9211 27.4 -32.1223 9.62136 21.293 -30.9794 9.55099 21.9242 -30.6611 10.743 21.0391 -33.2567 10.3039 21.4189 -33.8369 9.13357 22.1393 -29.4272 11.1288 21.6252 -29.5086 12.1254 21.64 -28.9916 19.3294 27.7555 -28.9868 17.7551 27.5748 -29.792 19.5472 29.9277 -31.1835 19.4915 28.8391 -28.6164 16.257 27.8164 -27.8481 15.2318 28.7291 -30.9068 19.6225 26.4712 -31.8699 19.0523 27.5341 -30.7985 20.9476 26.4914 -32.308 21.6393 26.0242 -33.9265 21.4703 26.0504 -33.7803 22.6519 24.2369 -6.46634 25.0376 41.5146 -5.51266 24.9118 41.7878 -7.75636 24.7154 41.4266 -5.98653 24.192 41.2805 -8.55389 26.0375 42.2266 -9.41907 24.6045 41.6887 -9.37342 25.7056 41.7595 -9.3548 26.63 42.1403 -5.41868 23.1608 41.731 -4.20283 23.6377 41.1968 -5.2121 21.4593 42.0315 -10.224 23.6625 40.6313 -6.94943 20.0273 43.3321 -6.74565 20.8058 42.0218 -8.01791 19.085 43.5744 -8.67604 18.2372 43.8969 -4.89426 20.8629 43.0953 -1.57852 24.7474 42.436 -2.51458 24.91 41.5057 -2.90273 23.7337 41.5497 -0.228643 26.0436 42.2914 -2.14857 26.4396 40.9221 -3.17284 22.5032 41.5192 -2.04232 28.2499 40.9762 0.954382 30.2112 41.5246 1.40259 29.0304 42.5764 -1.74917 29.8075 40.4058 2.44296 28.342 42.0716 -2.87466 29.5302 41.659 -21.3325 33.4788 42.6467 -20.0587 33.1138 42.5354 -21.5602 33.832 44.2963 -22.5536 32.8597 42.9723 -19.0277 32.4838 45.2811 -19.6114 33.1138 46.6821 -18.2903 31.6241 43.9692 -15.8151 30.3091 42.5016 -16.7192 30.3753 43.4743 -14.988 28.8858 42.6685 -17.7929 30.3638 43.5584 -17.8458 29.3981 44.7002 -16.9265 28.7682 44.3165 -13.9016 28.9297 43.5878 -14.8034 28.6103 44.2096 -17.903 28.8495 46.1943 -12.1947 25.5053 45.1313 -13.4465 25.9429 45.2539 -11.9035 25.8044 44.2226 -11.2215 25.5381 44.9037 -13.7936 27.0886 46.0878 -14.4001 26.2372 46.9729 -14.3032 28.5211 45.6138 -11.0305 26.8164 43.8185 -15.8378 28.4265 44.8849 -10.3998 28.4104 41.4204 -9.87943 27.1832 41.3132 -11.1728 28.274 42.7648 -11.2363 29.2718 42.7421 -11.9604 28.551 41.2523 -11.1941 28.7933 43.6192 -20.396 36.2713 39.4761 -20.3608 36.7992 37.6452 -19.6863 37.0498 40.2883 -19.8493 38.5855 39.826 -19.5884 38.5295 40.7897 -20.252 39.2151 40.4904 -20.4103 40.2291 39.7945 -19.9798 36.2657 36.7481 -21.0695 37.5585 36.7975 -19.3558 39.9179 41.3106 -21.2431 42.8588 43.2341 -22.7867 42.0941 42.5985 -23.1654 42.8053 43.4406 -22.7305 41.041 41.4158 -24.1876 41.0385 42.4732 -21.2117 40.9198 40.3958 -19.5141 40.932 40.6147 -23.7485 44.8797 44.2355 -22.7125 45.4166 42.8499 -23.176 44.898 45.4354 -24.025 43.6127 44.4307 -22.5648 45.2735 41.6003 -21.673 46.4265 42.2796 -22.8431 42.8849 47.1639 -23.6955 42.493 50.3947 -23.3337 43.5896 49.7355 -24.6293 44.1761 50.1593 -22.2742 43.3308 48.624 -21.0293 44.5654 48.2614 -25.7062 44.5403 49.7693 -16.8071 29.2511 40.0679 -16.0125 28.7527 39.1255 -16.188 30.0436 38.6109 -15.7892 27.2523 39.514 -17.2214 30.0728 37.5073 -14.9265 27.0404 40.9137 -13.4661 27.8828 41.0688 -18.5409 29.7369 36.4063 -18.7394 30.6048 35.0123 -18.0209 29.921 35.1398 -17.8185 30.7758 34.6619 -19.1526 31.9822 36.4411 -18.8284 31.6671 37.5977 -21.7936 30.6202 37.6708 -22.2066 31.5273 36.3407 -22.6577 35.0172 41.2689 -24.1853 34.1773 41.3756 -21.8547 34.1038 40.7314 -22.0805 33.7141 39.5318 -25.0944 32.4963 41.6859 -25.591
[...]
POINT_DATA 1686
FIELD FieldData 1
normals 3 1686 double
-0.524281 0.510731 -0.681383 0.882341 -0.325696 0.339701 -0.360625 -0.359031 -0.860841 0.847443 0.515248 0.127904 -0.842582 -0.496367 -0.208986 -0.255297 0.960409 -0.111527 -0.562965 0.824815 0.0524519 -0.220681 -0.857311 0.4651 -0.133639 -0.169693 -0.976394 0.0221233 -0.885225 -0.464636 0.430362 0.801717 -0.414775 0.0509284 -0.611333 -0.789733 -0.175847 -0.93056 0.321147 0.539749 -0.468093 -0.699686 0.394669 0.667257 -0.631667 0.085451 0.969945 0.227825 -0.571433 0.675331 -0.466254 0.42946 -0.0395662 -0.902219 -0.879348 0.43505 0.193594 -0.997219 0.0246714 -0.0703236 -0.0482427 0.688281 -0.723838 -0.0404899 0.24651 0.968294 0.155403 -0.531653 -0.832583 0.818299 -0.566726 -0.0959582 0.466343 0.702844 0.537154 -0.756158 -0.321496 0.56997 0.535674 -0.191695 0.822379 0.866209 -0.435594 0.244825 -0.314702 0.321898 0.892941 0.42078 0.419363 -0.804413 -0.59382 -0.748054 0.296299 -0.24456 -0.847569 -0.470975 0.590973 -0.251328 0.766541 0.329415 -0.781409 -0.529987 0.778939 0.382822 0.49669 0.170458 -0.904834 0.390153 0.530043 -0.584646 -0.614202 0.573406 0.635318 0.517278 -0.2643 0.772507 0.577389 -0.489478 -0.13583 0.861372 0.369203 0.700189 -0.611085 0.727968 0.00350396 0.685602 -0.297948 0.909233 -0.290727 -0.636225 -0.518696 -0.571116 -0.675346 -0.347821 0.650329 0.833605 0.552051 0.0184953 -0.52975 0.691519 0.491087 -0.791043 -0.484264 -0.373817 -0.439722 -0.861863 0.25266 0.560422 -0.496566 -0.662834 0.887104 -0.195509 0.418118 -0.602758 0.180372 0.77727 -0.148977 -0.680857 0.717105 -0.229553 0.964237 -0.132486 0.288922 -0.948706 -0.128378 -0.352033 -0.461844 -0.814109 0.58898 0.0348506 0.807396 0.870575 -0.0477246 -0.489716 -0.265122 0.832556 -0.486374 0.792839 0.609387 0.00738192 0.952518 0.304467 -0.00317447 0.790379 -0.472748 0.389628 0.839141 0.523476 -0.147699 0.809029 -0.342329 -0.477791 -0.263282 -0.741195 -0.617505 -0.380088 0.892499 -0.242856 0.466174 0.260537 0.84546 0.443864 -0.778404 -0.443928 -0.251095 0.334238 0.908425 -0.474286 -0.728379 0.494486 0.291316 0.152973 0.944317 -0.36939 -0.371655 -0.851718 -0.365012 0.61639 -0.697732 0.93225 0.357273 -0.0571417 -0.18331 -0.5002 0.846285 0.747975 -0.206479 0.630792 0.931284 0.293721 -0.215494 -0.0467607 -0.821834 0.567804 -0.995925 -0.0899638 -0.006255 0.872509 0.476917 -0.106204 0.894861 0.444202 0.0436827 -0.181521 -0.938744 -0.292934 -0.531595 -0.0676754 0.84429 -0.10059 -0.994835 -0.0136075 -0.505557 0.857101 0.0989402 -0.873419 -0.097137 -0.477184 -0.291697 0.438651 -0.849999 -0.475658 0.878911 0.0355782 0.851012 -0.5138 -0.10857 0.0958471 0.572148 0.81453 -0.486825 0.79803 -0.355175 -0.323521 -0.176547 -0.929605 0.0385445 -0.902652 0.428642 0.403286 0.644488 -0.649612 -0.95182 -0.295062 0.0835322 -0.745269 -0.296033 -0.597443 -0.238729 -0.549449 -0.800696 -0.258996 -0.51157 0.819278 -0.135538 0.87286 0.468771 0.496742 0.564216 -0.659475 -0.470118 -0.865668 -0.172071 -0.0895251 0.675311 0.73208 -0.923977 0.116802 0.364174 -0.679306 -0.409851 0.608741 -0.343044 -0.492502 -0.799852 0.155149 0.148657 0.976642 -0.461458 -0.607682 0.646359 0.367869 -0.719164 0.589471 -0.533246 -0.744123 -0.402405 -0.252712 0.732422 0.632214 0.0927398 -0.877046 0.471369 -0.687722 0.583711 0.431648 0.277634 0.43148 0.858338 -0.378936 0.785496 -0.489289 -0.358109 0.898511 0.253842 -0.683685 0.407791 0.605212 0.270416 0.521321 -0.809382 0.0735476 -0.629648 0.773391 0.498478 0.844166 -0.197237 -0.909367 0.383205 -0.161883 -0.684043 -0.434496 0.585917 -0.404628 -0.904321 -0.135941 -0.489954 -0.00198403 -0.871746 -0.338345 0.882271 -0.327294 0.947898 0.304018 0.0951996 -0.233468 0.963099 -0.133912 0.19765 0.824271 -0.530576 -0.394679 -0.51087 -0.763702 -0.951575 0.257835 0.167408 0.44124 0.797849 -0.410786 -0.871092 -0.435516 -0.226991 -0.784188 -0.14912 -0.602339 0.433231 -0.900792 -0.0297425 -0.131577 0.788831 -0.600361 -0.938244 -0.243826 -0.245454 -0.188548 -0.981895 0.0181937 -0.78063 0.60935 0.138959 -0.54498 -0.510164 0.66538 0.0545701 0.386586 -0.920638 0.422124 -0.106566 0.900253 -0.897554 0.329567 0.292888 -0.657752 -0.752276 0.0379909 0.533657 0.743796 0.402464 -0.974933 -0.01557 0.221954 -0.731098 -0.134566 0.668871 -0.488886 -0.353695 -0.797427 0.409117 -0.624104 0.665671 0.844329 -0.371996 -0.385653 -0.517921 0.597092 -0.612567 0.820264 -0.474249 -0.319773 -0.448584 -0.540637 -0.711677 0.272891 0.840107 -0.468776 0.379212 -0.804555 -0.457044 -0.804978 0.541653 -0.242119 -0.867199 -0.435373 0.241695 0.529227 -0.831715 -0.167839 0.453941 -0.0156918 0.890894 -0.731666 -0.468903 0.494768 0.203689 0.881608 -0.425767 0.651612 -0.74033 0.165265 -0.852127 0.022404 0.522855 0.938229 -0.275753 -0.209013 -0.341183 0.592578 -0.729689 0.202988 -0.593541 -0.778784 -0.585438 0.51685 0.624603 0.924483 -0.0667334 0.375337 -0.637135 -0.0177882 -0.770547 -0.0980023 -0.595613 -0.797271 0.943078 -0.316089 -0.103402 -0.133119 -0.650026 0.748162 0.437866 -0.777527 0.451359 -0.44363 0.48012 0.756754 -0.670738 -0.445077 0.59331 0.615903 0.608454 0.500447 -0.059542 -0.520909 0.851533 0.304089 0.936272 -0.175852 -0.215966 -0.893937 -0.392727 0.343041 0.0243008 -0.939006 0.964047 -0.141418 0.224976 0.311255 0.254736 -0.915549 -0.182202 0.373913 0.909391 -0.35938 0.622763 -0.69499 -0.759057 -0.637636 -0.13135 -0.375333 0.236682 0.896162 0.615885 -0.505322 -0.60443 0.195174 0.979241 -0.0547226 -0.979156 0.190326 0.0709148 0.722389 0.65082 0.233641 0.156811 -0.869834 -0.467759 -0.709589 -0.217102 0.670336 0.131213 0.586695 -0.799107 0.320736 -0.934603 -0.15377 -0.29671 -0.531678 -0.793273 0.725432 0.412123 0.551274 0.465791 -0.859879 -0.208921 0.786735 0.14853 0.599155 -0.240094 0.954292 -0.177995 -0.777757 0.173787 -0.604063 0.194502 -0.516383 -0.833977 0.757039 0.482019 0.441078 -0.895327 -0.397372 0.201209 0.138217 0.391346 -0.909804 0.0532245 -0.868474 -0.492868 -0.0379228 0.68978 0.723025 0.995301 0.0858082 0.0448699 -0.0188269 0.814423 -0.579966 0.490482 -0.255262 0.833228 0.368051 0.899386 0.23589 -0.972617 0.0713361 0.221196 0.981394 0.183854 -0.0553536 0.545371 -0.515529 -0.660908 0.860603 -0.157096 -0.484442 0.154777 -0.973125 0.170503 -0.00101014 -0.183875 -0.982949 0.43115 -0.540554 -0.722434 0.766508 0.289281 0.573395 0.448789 -0.776598 -0.442137 -0.180253 0.114524 0.97693 0.818296 0.56721 0.0930817 0.050598 -0.875762 -0.480083 0.0384135 0.968545 0.245857 -0.845729 0.523372 0.104041 -0.941946 -0.0814538 -0.325736 -0.205913 0.0719532 0.975921 0.210086 -0.810924 0.546138 -0.603522 -0.413225 0.681914 0.0906507 0.279907 0.955738 -0.354202 0.931995 -0.0769846 -0.463675 -0.791825 0.397516 -0.182916 0.785662 0.590997 0.557125 0.424598 0.713672 -0.959363 -0.244825 0.140298 -0.390503 0.837829 -0.381509 0.576328 0.0524578 -0.815533 0.827313 -0.0845646 0.555339 -0.593316 -0.804853 0.0136863 0.295189 0.291026 -0.910037 0.631021 0.664772 -0.399864 0.838567 -0.51673 0.172614 -0.675075 0.430796 0.598907 0.544723 -0.414282 -0.729142 -0.718877 0.658565 -0.222505 0.871187 -0.482904 -0.0885287 0.0112958 0.0895787 -0.995916 -0.566145 -0.778751 0.270235 0.974827 -0.2132 -0.0652483 0.0238643 -0.207752 -0.97789 0.407019 -0.884161 0.229335 -0.442045 0.499452 -0.74508 0.599793 0.60092 0.528341 0.425861 -0.199039 0.882624 -0.644406 -0.764651 0.00705017 -0.823285 0.267886 -0.500439 -0.82006 -0.35279 0.450601 -0.544753 -0.035256 -0.837855 0.935003 0.354492 -0.0102804 0.409961 -0.239052 0.88022 -0.10189 -0.753488 0.649518 0.909536 0.356856 -0.213069 0.450074 0.420282 -0.787906 0.158213 -0.922513 0.352048 0.061199 -0.0711363 -0.995587 -0.973446 -0.158723 -0.164956 0.346102 -0.388719 0.85388 0.957668 -0.241478 0.156718 -0.00757817 -0.657039 -0.753818 -0.0470762 0.869326 0.491992 0.492682 0.174722 0.852488 0.570412 0.583614 0.577948 -0.91844 -0.282049 0.277338 0.224488 -0.352424 0.908517 0.542776 0.83955 0.0234421 -0.215921 0.9646 -0.151408 -0.796162 -0.205748 0.569029 0.69109 -0.453692 0.562635 0.609723 0.542881 0.57751 0.520128 0.824626 -0.222394 0.524919 -0.749607 -0.403175 0.535383 -0.350134 0.768617 -0.856046 -0.405923 -0.320019 -0.154569 -0.748536 0.644827 0.922897 -0.276628 0.267841 0.793573 0.60346 -0.0779606 -0.169575 0.0332336 0.984957 -0.685248 0.721666 0.098151 -0.824316 -0.0300062 -0.565334 -0.794189 -0.139033 0.591553 -0.426769 -0.787109 -0.44534 -0.473873 -0.719783 -0.507304 0.479808 -0.845579 -0.23405 -0.816148 0.397611 0.419296 0.953681 -0.125798 0.273254 0.0186215 0.924474 0.380791 -0.846561 -0.508548 -0.157202 -0.800911 0.592531 -0.0863063 -0.819533 -0.331942 -0.467097 -0.385826 -0.905391 0.177214 0.830021 -0.428515 -0.356987 0.592404 -0.796153 0.123281 0.0416214 -0.433482 -0.900201 -0.0725366 -0.940393 0.332265 0.131245 -0.161852 -0.978048 -0.99594 -0.0018574 -0.0899972 0.337814 -0.846017 0.412476 -0.274566 0.199807 0.94058 0.854135 0.489223 0.176391 -0.0819259 0.651861 -0.7539 -0.470078 -0.524487 -0.709887 0.49574 0.807007 -0.320907 0.447937 0.877693 0.170315 0.199971 -0.706012 0.679381 -0.341685 0.932606 -0.116177 -0.165005 0.226134 -0.960019 0.283202 -0.954666 0.0916983 -0.634828 -0.625031 0.454235 0.757172 0.266283 -0.596476 -0.490662 0.347764 0.798943 -0.616564 0.0303639 0.786719 0.657168 -0.334674 0.67537 0.388801 0.322833 0.862909 -0.604574 -0.64951 -0.461114 0.820077 -0.300775 -0.486835 0.236409 0.329183 0.914193 -0.082714 -0.558974 -0.825049 0.410541 -0.778816 -0.474239 -0.493547 -0.712704 0.498463 0.41659 -0.644514 0.641135 -0.58014 0.701278 -0.414303 -0.63307 -0.264468 0.727516 0.286233 -0.894383 0.343729 0.669826 0.688435 0.278192 -0.23195 0.368957 0.900039 0.575929 -0.284119 0.766539 0.682017 -0.266343 0.681112 -0.569757 0.171245 0.803774 0.973206 0.0327818 -0.227586 0.291189 0.299125 -0.908699 0.222607 0.974445 0.0300669 -0.383879 0.123057 0.915147 -0.732158 0.458087 -0.504085 -0.10019 0.979182 -0.176533 -0.802495 -0.552713 -0.224744 -0.815241 0.342097 0.467282 -0.294896 -0.885101 0.360044 0.0421718 -0.478451 0.877101 -0.0212794 0.519275 0.854342 -0.745427 -0.201471 -0.635412 -0.0634512 0.997725 -0.0227578 0.209052 -0.0716917 0.975273 0.244237 0.456216 -0.855696 0.500618 0.850166 -0.163093 -0.663617 0.685605 -0.299263 -0.40268 0.629553 0.664464 0.260937 -0.056051 0.963727 0.102625 0.957996 0.267791 0.136727 -0.989743 -0.0414025 -0.95292 0.303115 0.00807098 0.635239 0.758862 -0.143527 0.985175 0.0999868 0.139404 -0.558481 -0.664736 -0.496211 -0.937109 0.046429 0.345935 0.614713 -0.388423 -0.686481 -0.842395 -0.390861 0.370942 0.904052 0.267303 -0.333525 0.793552 -0.255184 0.55241 -0.198948 -0.505946 0.839308 0.837028 0.0309505 -0.546284 0.771417 0.524253 0.36066 -0.0775197 -0.761008 -0.644095 -0.689276 -0.174036 -0.703285 0.202461 0.978996 -0.0240239 0.735787 -0.135241 0.663572 0.530949 -0.774324 0.344262 0.8927 0.3223 -0.314974 -0.402802 0.908795 0.108819 0.166844 -0.58112 -0.796532 -0.470323 0.0363858 -0.881744 -0.674197 -0.54465 -0.498814 0.733853 0.414337 -0.538316 0.0607366 -0.912715 -0.404056 -0.11472 0.378106 -0.918627 0.162534 -0.587671 0.792607 -0.918728 -0.348905 -0.184945 0.700229 0.37569 0.607071 0.760191 0.466748 -0.451946 -0.400785 0.0130825 -0.916079 0.202341 0.854773 -0.477934 0.920837 0.171027 -0.350441 0.718496 -0.683746 0.127494 0.805243 0.286667 0.519044 -0.481071 -0.601773 0.637526 -0.725314 0.502404 -0.470648 0.312341 0.404702 -0.859453 0.982646 0.00514904 -0.185419 -0.544976 -0.834749 -0.0787168 -0.179644 -0.918561 -0.3521 -0.0461261 0.528862 -0.847454 -0.364084 -0.84624 0.389 -0.968442 -0.248609 -0.0177121 -0.802849 0.517519 -0.295987 -0.246578 -0.494713 -0.833342 -0.0846059 -0.775915 0.625138 -0.523755 -0.0212159 0.851605 0.343077 -0.922037 0.179292 0.684345 -0.00327093 -0.729151 0.0521956 -0.772162 -0.633278 -0.632149 -0.768893 0.0958726 -0.532973 0.845591 -0.0302551 -0.632419 -0.249155 0.733463 0.111853 0.989666 0.089722 0.663255 0.299663 0.685781 0.266548 -0.616635 0.740751 -0.396706 -0.916298 0.0549708 0.144325 -0.973335 -0.178293 0.941688 0.228755 -0.246769 0.952476 -0.27084 0.139406 0.351978 0.914022 0.201679 0.0401723 -0.061492 0.997299 0.825618 0.130157 -0.549012 0.543334 -0.288199 0.788498 0.207646 0.240043 -0.948295 -0.610431 0.232644 0.757133 0.569833 0.653633 0.49805 -0.199383 -0.416779 0.886872 -0.936642 0.341281 0.0789207 0.979482 0.0161775 -0.200882 0.045866 0.676022 0.735453 0.0461474 0.974652 -0.218917 -0.329135 -0.934058 -0.138583 0.000281515 0.298631 -0.954369 -0.0860255 0.0182811 0.996125 -0.133087 -0.34528 -0.929015 -0.932065 -0.35555 -0.0695595 -0.0549693 0.0131297 -0.998402 -0.458302 0.884295 -0.0893398 -0.0542374 0.616054 0.785834 0.935493 -0.313537 -0.162934 0.305626 -0.273811 0.911932 -0.249342 0.598138 -0.761616 -0.881929 -0.427646 -0.198291 0.886365 0.085922 -0.454944 0.133839 0.0709514 0.98846 -0.147677 0.890923 0.429473 0.24416 -0.0975265 0.964818 0.190713 -0.677218 0.710636 0.62222 -0.0410335 -0.781766 -0.314517 0.648998 -0.692734 -0.770935 -0.545609 -0.328588 0.977297 0.117967 0.175996 0.168793 -0.227204 -0.959108 -0.221778 -0.194172 0.955569 0.31223 -0.0514012 0.948615 0.386745 -0.246064 -0.888752 0.233623 -0.967957 -0.0920854 0.848218 0.213361 -0.484771 0.514942 0.717386 0.469247 0.754998 -0.200386 -0.624358 0.833951 0.55098 0.0307878 0.0789525 0.751366 0.655145 0.737098 -0.52347 -0.427394 -0.93208 -0.281551 0.227937 0.106185 -0.984393 0.140343 -0.162948 0.163296 -0.973028 -0.961161 0.270067 -0.0568679 -0.771609 -0.596125 -0.221932 0.316211 0.429534 0.845879 0.0520277 -0.975619 0.213213 0.848388 0.395741 0.351605 -0.272607 0.945093 -0.180235 0.820801 0.360437 0.443138 0.454268 -0.689906 -0.563622 0.739345 0.657521 0.145037 0.525644 -0.270165 0.806666 0.583402 -0.15439 0.797374 -0.461073 -0.886803 0.031501 0.076556 -0.0981377 -0.992224 -0.761808 0.419945 0.493249 0.0132645 -0.457367 0.889179 0.174663 -0.752869 0.634572 -0.673459 0.73174 0.104927 0.158759 0.229029 0.960386 -0.6181 -0.684691 0.3862 -0.626566 0.428731 -0.650849 -0.849371 0.276986 0.449275 0.904055 0.362128 -0.227041 -0.805881 0.588071 -0.0687655 -0.431409 0.654836 -0.620545 0.738193 0.590192 0.326719 -0.634504 -0.0900718 -0.767653 0.607771 0.65521 -0.448682 0.0899202 0.919988 -0.381493 -0.0321931 -0.653007 -0.756667 -0.715425 -0.41409 0.562758 -0.140232 -0.862824 -0.485664 0.607039 -0.254388 -0.752855 0.135141 -0.613871 0.777752 0.747271 0.608436 -0.267191 0.927543 0.254463 -0.273703 0.419222 0.59126 0.68896 0.728734 -0.645838 0.227686 0.134902 0.285476 -0.948844 -0.401716 -0.536048 -0.74248 0.942649 -0.24927 0.221986 -0.870799 0.180291 0.457389 -0.794115 0.291167 -0.533482 0.0766839 0.110877 -0.990871 -0.142011 -0.966131 -0.215461 -0.779814 -0.619152 0.0924204 0.365186 0.0363238 0.930226 0.923707 -0.285156 0.255836 -0.625848 0.096201 0.773989 0.320144 0.401773 -0.857955 -0.0262134 0.974679 -0.222067 -0.0750063 0.293868 -0.952899 -0.0487929 -0.680812 -0.730831 -0.934398 -0.338268 -0.11169 -0.873107 0.0478146 -0.485178 -0.951858 -0.00203615 -0.306532 0.180203 0.297803 -0.937465 -0.52601 -0.423996 0.737253 0.600296 -0.795225 0.0852138 0.305313 0.952252 -0.000847468 0.953937 -0.16736 0.248987 -0.372255 0.806462 0.459397 -0.291914 0.767027 0.571363 0.915971 0.311239 0.253232 -0.916812 0.254764 -0.307492 -0.483739 -0.305003 0.820348 0.299643 0.442555 -0.845198 -0.804374 -0.292092 -0.517364 0.856699 0.353284 -0.375843 -0.953201 0.278386 0.11794 -0.973339 -0.0925689 -0.209861 -0.335316 0.565905 0.753203 0.5685 -0.653444 -0.499819 0.962857 -0.108792 0.247126 0.942416 0.180479 -0.281564 0.20149 -0.977363 -0.0645284 0.0784532 -0.326375 -0.941979 0.177845 -0.170958 -0.969095 -0.0405237 0.0698214 0.996736 -0.954803 0.2917 0.0571109 0.218675 0.785006 0.57961 0.356208 0.802851 -0.478065 0.915512 0.17847 0.360536 -0.461769 0.786819 0.409494 0.451542 -0.204667 -0.868459 0.140413 0.405143 -0.903406 -0.452539 0.616848 0.643978 -0.548815 0.732426 -0.402931 0.998483 0.0539685 -0.0109274 -0.233808 -0.529866 -0.815215 0.874389 -0.0613838 -0.481327 0.715313 -0.611282 0.338617 -0.571021 0.793885 -0.209001 -0.247744 -0.80363 -0.541111 0.225227 -0.881845 0.414273 -0.159076 -0.549898 0.819943 -0.136911 -0.942542 -0.304746 0.195776 -0.736099 0.647943 -0.970679 -0.191265 -0.145599 0.752104 0.24629 -0.611294 -0.167365 0.666151 0.726796 0.296 -0.181984 -0.937692 0.178048 -0.979312 0.0961557 -0.852948 0.324455 -0.408911 0.310054 0.891596 -0.330035 0.961725 0.263215 -0.0761835 -0.677815 -0.422522 -0.601699 -0.90085 -0.104488 -0.421369 0.0869308 -0.137374 -0.986697 -0.958586 0.0847457 -0.271904 -0.971397 -0.220209 -0.0888553 -0.920339 -0.339269 0.19461 -0.404835 0.886627 0.223609 0.583361 0.656312 -0.478481 0.677296 0.0151074 -0.735555 0.685702 -0.616336 0.387224 0.247278 -0.921411 -0.299758 -0.772748 -0.093742 0.627752 -0.560192 0.812077 0.163449 0.338607 -0.537561 0.772252 -0.248422 0.737777 0.627672 -0.919453 0.240852 -0.310799 0.910732 -0.222956 0.347645 -0.507612 0.0912846 0.856736 -0.913895 0.308417 -0.26396 -0.559511 0.0278478 0.828355 0.251178 0.11603 0.960961 -0.497792 -0.858156 -0.125586 0.698229 -0.692806 -0.180268 -0.486237 0.296949 0.821824 -0.429498 -0.750366 -0.502476 0.107259 -0.985917 -0.128308 -0.358903 0.282674 -0.889541 0.989849 0.0491908 0.133342 0.584084 -0.235621 0.776742 -0.215847 0.803185 0.555251 -0.215429 -0.743822 -0.632708 0.305848 -0.948814 -0.0788038 -0.482457 -0.565145 0.669213 0.592239 0.799939 0.096702 0.0061544 -0.542151 -0.840259 0.319838 0.311483 0.894808 -0.565235 0.798871 -0.205703 0.891632 0.424415 0.157684 0.403232 -0.812166 0.421651 -0.942707 -0.33239 -0.0286589 -0.248882 0.831387 -0.496843 -0.605433 0.219346 0.765074 0.582344 0.712468 0.391491 0.765687 -0.613914 -0.191919 0.418096 0.0450222 0.907286 -0.330168 -0.0711773 -0.941235 0.197926 -0.833441 0.515947 -0.36775 0.577297 0.729032 -0.929915 0.203586 0.306286 0.162079 0.503838 0.848456 -0.131551 -0.66124 0.73855 -0.945997 -0.235632 -0.222638 0.88347 -0.204682 0.42141 0.58275 -0.490448 0.647969 -0.349397 -0.879073 0.32427 -0.249209 0.787962 -0.563038 0.272445 -0.800216 0.534255 -0.762171 -0.37097 -0.530544 0.879899 0.459831 0.11972 -0.789085 0.25072 0.560789 0.216693 -0.970709 0.10377 0.187705 0.252689 -0.949166 -0.640352 0.745467 -0.185011 0.269476 -0.431181 0.861084 -0.278019 0.894391 0.350385 0.463471 -0.648164 -0.604217 0.550177 -0.322212 0.77038 -0.871984 -0.407029 0.271975 0.439845 -0.558681 0.703144 0.734428 -0.595252 -0.326023 0.724888 0.632654 -0.272556 0.639815 -0.592219 0.489811 0.674509 0.425654 -0.603205 -0.925319 -0.34832 0.149859 -0.543792 0.528021 -0.652292 0.309949 0.100762 0.945399 0.107692 -0.807712 0.579658 -0.202257 -0.908474 -0.36574 -0.512835 -0.525514 -0.678849 0.156939 0.962042 -0.223262 -0.338919 0.058816 -0.938975 0.336784 -0.68642 0.644518 0.915086 -0.186894 0.357334 0.786691 -0.217562 -0.57774 -0.74085 0.661321 0.117457 0.272676 0.080625 0.958722 0.938176 -0.213349 0.272595 -0.291904 0.770271 -0.566987 -0.909692 -0.391042 0.139808 0.815905 0.331339 0.473828 -0.511356 0.0566032 -0.857503 0.438207 -0.296907 -0.848422 0.178725 -0.443756 0.878145 0.141463 -0.535669 0.832495 -0.634909 -0.771178 0.0466388 0.386367 0.855251 0.34535 0.491123 0.695133 -0.524965 -0.0958543 0.414265 0.905095 -0.785992 0.537338 0.305754 0.325899 -0.841521 -0.430851 -0.721616 -0.111805 -0.683206 -0.793984 -0.553118 -0.252292 0.260434 0.761614 0.593395 -0.964387 0.260827 0.0438929 -0.680271 -0.228407 0.696464 0.154657 0.594598 -0.789009 -0.826048 0.496109 -0.267434 -0.66954 -0.686587 0.283397 0.553908 0.676834 0.484853 0.799741 0.493711 0.341561 -0.528834 0.817203 -0.22916 -0.109643 0.992081 0.0612602 -0.501746 0.492445 -0.711161 0.345006 0.93434 0.0893316 -0.606 0.789654 0.0959724 0.940144 0.0399791 -0.338423 -0.739139 -0.408558 -0.535494 -0.288426 0.722658 0.628152 0.442035 0.608412 0.65912 -0.557977 0.72073 -0.411351 -0.236789 -0.299324 -0.924303 0.0106458 -0.974537 -0.223972 -0.141524 0.775883 -0.614798 -0.777046 0.243817 -0.580304 -0.594074 -0.785258 0.174487 0.489124 0.323006 -0.8102 -0.881182 0.239629 0.407549 -0.236827 -0.335215 0.91189 0.644355 -0.574844 0.504343 0.775694 -0.345229 0.528314 -0.0129063 0.939889 0.341235 -0.814245 0.0086018