# vtk DataFile Version 4.0
Generated by libgran
ASCII
DATASET POLYDATA
POINTS 1686 FLOAT
-32.8312 2.35363 6.36311 -31.4081 1.53106 7.37255 -33.7264 2.49863 4.82614 -32.525 3.38583 5.81156 -33.5843 -0.88896 7.62278 -34.3531 3.09548 3.85794 -30.6055 0.329932 12.0101 -30.2243 -1.3467 12.4109 -31.3227 0.975395 11.0952 -31.4287 -0.0742028 9.64991 -31.0436 1.61798 9.70528 -30.5734 1.82096 8.49843 -29.4085 -3.00928 14.809 -28.7115 -2.52469 13.7856 -28.8823 -1.3934 13.8612 -28.4416 0.25645 13.4638 -27.7866 0.560755 14.1555 -27.9512 1.20177 12.792 -31.2017 -3.78742 12.9657 -32.9298 -4.63621 14.627 -31.9931 -4.00364 13.9266 -31.9234 -4.43077 15.6211 -33.8231 -5.13177 13.7684 -31.1154 -4.76153 16.4615 -31.4096 -3.47852 17.097 -31.647 -3.07407 18.2084 -30.3435 -2.97803 18.411 -29.7215 -4.41888 21.0883 -30.8644 -3.62693 21.7629 -30.1848 -3.57164 20.0405 -29.4549 -5.59854 21.6409 -30.3306 -7.17931 21.5238 -30.5296 -3.53377 23.4104 -29.4944 -3.97048 18.6845 -29.7646 -7.95768 19.5608 -30.4092 -9.23062 19.4992 -28.4645 -8.194 19.4129 -27.364 -8.16662 19.2794 -26.994 -6.73924 20.329 -27.6842 -6.05495 21.7777 -26.8691 -5.26965 20.2535 -29.5052 -10.1321 20.5701 -21.1547 -12.655 22.9785 -22.0937 -12.2459 22.1307 -23.4371 -13.0553 22.2626 -20.5754 -11.67 24.6081 -21.9194 -11.4634 25.1105 -24.9288 -13.8194 22.5946 -26.7424 -11.6849 19.689 -25.7552 -11.3856 18.7363 -26.3215 -12.7414 20.3782 -27.7852 -12.2945 20.7628 -25.5905 -13.6205 21.5159 -28.5589 -11.1009 21.3917 -24.9906 -12.885 17.9595 -25.139 -14.3145 17.056 -24.4375 -16.4135 18.0569 -24.197 -16.5429 16.7554 -25.2914 -15.6118 16.7656 -23.0042 -15.8136 18.8148 -22.3796 -16.381 16.2047 -21.4073 -15.7389 19.1713 -21.4898 -16.7126 19.7446 -21.7915 -15.6079 12.135 -22.8855 -15.9566 12.0344 -22.9117 -14.3083 12.3594 -20.5127 -15.7422 12.4737 -20.62 -16.8179 11.2192 -20.2231 -15.1074 14.2026 -20.9246 -15.4271 15.6363 -36.7432 16.4614 3.59908 -37.4465 15.9643 1.81143 -37.438 14.9799 1.63557 -35.5035 16.9743 4.46202 -34.7295 16.8277 5.22598 -33.8102 17.1429 4.99052 -33.9601 16.6211 5.8303 -40.6523 15.4459 2.05237 -41.6289 16.1784 1.5271 -39.7721 16.7731 1.38167 -39.7811 15.0667 2.62936 -40.8464 13.6758 2.29041 -41.544 12.6515 2.82846 -42.1584 11.5662 3.64287 -46.4626 12.198 3.94396 -46.83 11.246 3.36381 -47.2935 13.4937 3.23019 -45.6234 13.7471 4.8875 -43.1054 11.0757 3.73523 -42.3495 10.0158 2.78291 -42.9474 10.2603 1.62468 -42.7793 9.30048 1.02732 -42.3943 8.54917 2.3654 -43.0571 11.7251 0.655198 -44.3944 10.751 1.37588 -43.4179 12.1043 -0.577511 -42.5787 7.10312 1.96289 -42.5869 7.10513 3.58342 -45.1234 8.64083 -4.88361 -44.4864 8.37708 -6.02058 -45.4298 6.91746 -5.57728 -45.9531 10.1863 -6.40306 -46.7786 9.62581 -6.7879 -46.7256 10.3983 -5.05489 -48.0395 9.24312 -7.23498 -47.5511 9.83788 -5.43973 -46.3371 5.41534 -5.1484 -45.9758 10.7086 -3.04171 -46.8767 10.6993 -4.03406 -45.8598 10.6869 -1.82023 -46.0125 10.5075 -0.720732 -46.5936 10.1797 0.179488 -45.6216 10.0304 0.59209 -47.6835 11.5316 0.170087 -45.7086 11.3285 1.7409 -44.3927 4.93122 -8.06852 -43.4345 5.10745 -9.4739 -43.6267 3.89491 -7.93719 -44.5975 6.16703 -7.62248 -45.0283 7.39801 -7.94399 -46.6204 7.30808 -7.52151 -43.939 2.33221 -7.36326 -47.7873 6.86152 -7.82052 -45.9039 1.99039 -3.95401 -45.3312 3.2058 -4.1198 -46.5238 3.82419 -4.39904 -44.21 4.3901 -4.45926 -25.0332 13.7676 19.984 -25.5969 14.5179 20.926 -24.2171 15.0868 20.3443 -26.2894 12.8098 18.992 -27.9786 12.7062 20.5361 -28.3692 10.3642 18.3463 -28.9408 12.0687 17.829 -28.8763 9.22812 18.0411 -28.1247 8.48273 18.2773 -28.2987 12.2703 17.0893 -30.3587 8.46791 18.4525 -29.7659 9.39801 16.8832 -30.4716 7.81179 20.0028 -25.9116 5.26139 12.4626 -25.6583 4.18495 12.1981 -26.2869 6.31985 13.1746 -27.7873 5.54722 12.9823 -27.0347 3.27504 12.9 -26.7911 3.0692 11.4321 -27.3427 2.50935 14.2339 -26.4283 2.35035 10.247 -26.1029 2.58007 9.24951 -28.8919 9.34382 15.6404 -30.1606 9.27559 15.2484 -27.8034 9.7347 14.8573 -30.2206 7.95503 14.0514 -31.4152 9.28686 14.296 -30.697 6.71462 13.8142 -29.2987 6.34058 13.3905 -33.7261 7.46332 5.43199 -34.9071 6.995 5.03964 -33.0789 8.33552 5.89996 -32.6024 6.71601 6.47506 -36.4769 6.51597 6.06419 -34.3724 4.91747 6.77889 -37.6769 7.12414 5.87712 -37.8239 7.15101 4.36972 -40.9633 6.09336 5.29044 -39.4501 5.52637 5.02339 -42.1912 6.58346 5.16002 -42.927 5.99242 3.58391 -38.565 6.87933 3.69312 -38.6476 4.798 6.13141 -32.0597 6.57918 11.6718 -31.6729 9.07491 11.1064 -32.7836 9.07934 12.4599 -32.8377 9.2236 13.5564 -33.5058 8.08431 13.889 -31.9279 10.7686 13.907 -33.7671 6.65914 14.3235 -34.3708 4.11121 9.34098 -33.7398 3.95977 10.5015 -33.7328 4.39746 7.48186 -32.9557 4.20851 11.6308 -25.5783 23.0009 29.2007 -25.991 21.7411 29.7562 -25.6164 22.6113 30.7906 -25.3045 23.1203 27.905 -25.7258 24.6054 28.4528 -26.5048 25.7784 28.4609 -22.7796 23.2593 29.1654 -22.5025 23.599 31.4693 -23.3801 24.2524 32.5984 -22.2004 23.318 30.2053 -21.7388 22.9707 29.2568 -23.5616 25.1081 29.6353 -23.3779 24.4424 33.8209 -25.4239 27.3821 33.8343 -25.108 28.3915 34.6431 -26.1308 29.1959 33.8594 -25.7281 26.6972 33.0174 -24.754 26.0068 32.7963 -23.5705 29.024 35.6914 -25.4508 25.0973 32.153 -20.8941 25.9684 36.3862 -20.9763 24.7149 36.8223 -20.7946 27.0468 36.1836 -19.8434 27.8344 36.9469 -20.853 28.5529 36.3034 -18.3643 27.6789 37.8388 -18.4825 28.8243 37.2231 -21.8419 29.4327 35.9237 -19.8859 29.5419 35.6604 -27.7396 23.5902 33.9319 -28.2542 25.8375 34.2206 -30.3162 24.7877 36.3169 -30.1644 23.6301 35.505 -29.7441 22.9083 33.796 -26.4283 23.3566 33.8561 -31.3958 20.5271 31.9765 -32.0185 21.4092 33.404 -30.1304 20.3434 31.6075 -29.2616 20.0522 31.2071 -32.1637 22.4934 34.6254 -33.0393 22.0266 34.5016 -34.8409 22.4246 34.3116 -35.5971 22.2497 33.0243 -35.1679 21.376 32.5888 -36.6331 23.5598 32.1696 -37.1118 23.4187 33.8169 -37.5917 24.0569 32.7912 -36.2232 21.5174 34.4116 -37.201 24.4861 35.3625 -37.4098 25.4198 33.4207 -41.1398 24.9961 36.6864 -40.608 26.0915 36.1522 -39.6301 25.3295 35.7015 -38.2312 25.3316 35.4151 -41.0685 25.7215 33.7309 -37.1209 25.5642 35.0389 -33.7777 6.84876 23.4794 -33.5801 5.65034 24.0193 -35.0887 6.59601 24.4672 -32.5942 7.1216 22.3638 -33.8549 8.18807 22.8907 -31.1739 6.24654 21.53 -30.3022 5.85462 20.4363 -30.8474 5.14782 19.7203 -29.3252 5.75061 19.3647 -31.3758 4.14644 19.0231 -30.9588 3.48297 20.2263 -27.4232 4.67762 18.1206 -27.2714 5.77808 17.9001 -38.5674 6.85944 24.2785 -38.7863 5.87776 25.1482 -40.2562 5.39487 24.6478 -38.9369 8.16027 24.9178 -40.3035 7.78357 24.5255 -37.1218 5.12591 21.7131 -37.3171 6.48005 22.7649 -36.2883 4.7117 22.342 -35.4807 4.30426 22.7684 -34.1217 5.1006 21.7817 -34.414 3.73282 22.8915 -29.5118 15.4434 23.5374 -30.5396 15.3346 24.374 -29.2102 15.1148 25.3823 -28.4932 15.1561 22.6892 -29.457 14.7301 21.782 -31.567 16.0341 24.7032 -31.1201 17.0919 26.0364 -30.0508 17.8762 27.4482 -32.0483 9.57541 21.2966 -30.9124 9.5095 21.9408 -30.5907 10.7061 21.0633 -33.1854 10.2534 21.4225 -33.7686 9.07167 22.1217 -29.3641 11.096 21.6619 -29.4514 12.092 21.6812 -28.9847 19.3079 27.7833 -28.9497 17.7337 27.6062 -29.7554 19.5137 29.9674 -31.1625 19.4261 28.9013 -28.5375 16.2468 27.8497 -27.7246 15.2486 28.7536 -30.9259 19.5574 26.5291 -31.8599 18.9694 27.6082 -30.8455 20.8846 26.544 -32.3748 21.5445 26.0954 -33.9893 21.3445 26.1419 -33.8707 22.5213 24.3122 -6.52393 25.0519 41.8522 -5.57618 24.9187 42.1421 -7.8154 24.7416 41.7449 -6.04859 24.2001 41.6319 -8.61313 26.0768 42.5227 -9.48323 24.6485 41.98 -9.42801 25.7495 42.0443 -9.40667 26.6764 42.419 -5.49838 23.1666 42.0987 -4.26924 23.628 41.5816 -5.31348 21.4649 42.4122 -10.2789 23.7053 40.9167 -7.08478 20.047 43.6859 -6.85421 20.8234 42.3788 -8.16323 19.1118 43.9108 -8.83195 18.2677 44.2211 -5.02026 20.8696 43.4836 -1.65339 24.7163 42.8591 -2.56756 24.8835 41.9081 -2.97435 23.7136 41.9556 -0.280864 25.9901 42.7293 -2.16688 26.4016 41.3175 -3.25606 22.4856 41.9285 -2.03503 28.2106 41.3561 0.978001 30.1332 41.9496 1.38663 28.9558 43.0211 -1.7069 29.758 40.777 2.42789 28.2482 42.5457 -2.86274 29.5097 42.0084 -21.3662 33.5832 42.6957 -20.087 33.2323 42.602 -21.6136 33.962 44.3368 -22.582 32.9537 43.0211 -19.0875 32.6401 45.3732 -19.6947 33.2852 46.7572 -18.3296 31.7679 44.0814 -15.8401 30.4203 42.6561 -16.7559 30.5044 43.6164 -15.0275 28.9918 42.8484 -17.8306 30.5031 43.6869 -17.9064 29.5499 44.838 -16.9878 28.9082 44.4726 -13.9525 29.0362 43.7811 -14.8649 28.731 44.3946 -17.9872 29.0223 46.3385 -12.2883 25.6174 45.3908 -13.5397 26.0629 45.4861 -11.9801 25.9027 44.4833 -11.3112 25.6422 45.1795 -13.8919 27.2207 46.3008 -14.5213 26.3843 47.1843 -14.3833 28.6525 45.8059 -11.095 26.9048 44.0806 -15.9094 28.5633 45.0585 -10.4222 28.4617 41.6698 -9.9121 27.2289 41.5796 -11.2144 28.3484 43.0051 -11.2717 29.3461 42.9677 -11.9796 28.6088 41.4782 -11.2444 28.8796 43.8518 -20.1506 36.5085 39.4136 -20.2405 36.9606 37.5643 -19.4694 37.3733 40.1602 -19.7765 38.8741 39.6578 -19.4596 38.8738 40.6063 -20.1899 39.4955 40.3233 -20.4646 40.4681 39.6047 -19.8578 36.4218 36.671 -21.0457 37.625 36.7231 -19.3075 40.2942 41.0671 -21.3223 43.1739 42.9822 -22.8296 42.2604 42.4672 -23.2198 42.9763 43.2999 -22.7506 41.1634 41.3263 -24.1431 41.0912 42.4652 -21.2831 41.1179 40.2281 -19.5822 41.2668 40.3485 -23.9443 45.0358 44.0233 -23.0459 45.5874 42.5502 -23.3054 45.1691 45.1818 -24.0918 43.7618 44.2969 -22.961 45.3973 41.3011 -22.1356 46.6538 41.8721 -22.6901 43.2915 46.9835 -23.3066 43.0069 50.2793 -23.0852 44.0921 49.5435 -24.4002 44.5872 50.0204 -22.076 43.8646 48.3795 -20.9711 45.1802 47.8758 -25.5277 44.8339 49.6851 -16.8074 29.3034 40.2129 -16.0044 28.7886 39.2867 -16.1756 30.07 38.7476 -15.789 27.2949 39.7044 -17.1995 30.0795 37.6348 -14.9478 27.1077 41.1206 -13.4873 27.9485 41.2837 -18.5104 29.7264 36.5289 -18.6985 30.5729 35.1204 -17.9808 29.8915 35.2638 -17.7751 30.739 34.7745 -19.1228 31.9698 36.5256 -18.8066 31.6744 37.6896 -21.7731 30.6263 37.7629 -22.1771 31.5079 36.4131 -22.697 35.0809 41.2776 -24.2138 34.2214 41.382 -21.8754 34.1707 40.7632 -22.079 33.7602 39.5666 -25.1024 32.5335 41
[...]
POINT_DATA 1686
FIELD FieldData 1
normals 3 1686 double
-0.534807 0.505912 -0.676782 0.888294 -0.316661 0.332655 -0.360311 -0.360916 -0.860183 0.841036 0.526284 0.125235 -0.821403 -0.525066 -0.222716 -0.266463 0.957772 -0.108026 -0.579833 0.812415 0.0614478 -0.19869 -0.864216 0.462227 -0.137425 -0.166952 -0.976341 0.0314415 -0.882646 -0.468985 0.41661 0.809541 -0.413617 0.0535496 -0.606565 -0.793228 -0.151884 -0.936156 0.317084 0.545091 -0.451573 -0.70637 0.374365 0.679722 -0.630737 0.0662497 0.970127 0.233377 -0.588809 0.665822 -0.45824 0.424183 -0.0248086 -0.905237 -0.85308 0.46679 0.233157 -0.99835 0.0504416 -0.0274535 -0.0616593 0.683011 -0.727801 0.0080167 0.255885 0.966674 0.104988 -0.545998 -0.831182 0.799937 -0.586651 -0.126259 0.505738 0.69636 0.509227 -0.743079 -0.291908 0.602182 0.560434 -0.195863 0.804706 0.865027 -0.449487 0.222911 -0.277831 0.342466 0.897511 0.40175 0.397751 -0.824858 -0.598455 -0.730173 0.329696 -0.277251 -0.850598 -0.446783 0.612602 -0.249306 0.750044 0.288683 -0.796591 -0.531136 0.801003 0.372885 0.468349 0.156417 -0.900053 0.406741 0.499094 -0.609201 -0.616262 0.601364 0.636582 0.48283 -0.231326 0.790797 0.566682 -0.458857 -0.106513 0.882102 0.356203 0.678789 -0.642157 0.747558 -0.00146888 0.664194 -0.267845 0.913936 -0.304925 -0.671186 -0.504768 -0.54288 -0.672253 -0.304632 0.674741 0.855662 0.517316 -0.0150376 -0.488412 0.723885 0.487283 -0.819407 -0.459465 -0.342731 -0.467904 -0.835728 0.287444 0.519304 -0.536402 -0.665279 0.888767 -0.220705 0.401725 -0.574895 0.226209 0.786336 -0.157722 -0.658376 0.735979 -0.198765 0.967323 -0.157412 0.245299 -0.963018 -0.111468 -0.393682 -0.466487 -0.792089 0.612785 0.029063 0.789715 0.853196 -0.100313 -0.511853 -0.241207 0.830756 -0.501661 0.820442 0.57084 -0.0318876 0.964255 0.262119 -0.0387944 0.776478 -0.496173 0.388451 0.858952 0.477538 -0.184822 0.778398 -0.39701 -0.486291 -0.315587 -0.74564 -0.586878 -0.341727 0.902582 -0.261855 0.500388 0.26277 0.824963 0.393177 -0.812983 -0.4295 -0.210728 0.37205 0.903976 -0.490761 -0.691808 0.529674 0.315894 0.137572 0.938768 -0.387403 -0.359606 -0.848883 -0.395867 0.624756 -0.67303 0.923808 0.375274 -0.0758229 -0.149872 -0.521829 0.839782 0.769481 -0.206636 0.604318 0.919353 0.315193 -0.235465 -0.0178367 -0.835932 0.548544 -0.994366 -0.103415 0.0232795 0.862406 0.491256 -0.12216 0.889119 0.456792 0.0284458 -0.176248 -0.934089 -0.310505 -0.521348 -0.0902477 0.848558 -0.09299 -0.995081 -0.0341454 -0.515883 0.847786 0.12298 -0.883253 -0.104198 -0.457172 -0.314953 0.447947 -0.836749 -0.486799 0.871583 0.0580418 0.854035 -0.5046 -0.126505 0.0981803 0.555321 0.82582 -0.499681 0.79989 -0.332406 -0.331567 -0.15997 -0.92977 0.0534416 -0.911277 0.408311 0.389986 0.664863 -0.637077 -0.947313 -0.309204 0.0836097 -0.750749 -0.285655 -0.595631 -0.237901 -0.534772 -0.810815 -0.246032 -0.532769 0.809707 -0.1496 0.855831 0.49515 0.487343 0.592078 -0.641826 -0.456021 -0.867544 -0.198524 -0.100159 0.651183 0.752283 -0.925613 0.0907219 0.367437 -0.672379 -0.439109 0.595894 -0.33533 -0.473408 -0.814517 0.153077 0.121351 0.980735 -0.451315 -0.634568 0.627406 0.3796 -0.730725 0.567402 -0.521301 -0.740049 -0.424938 -0.263595 0.709009 0.654082 0.110907 -0.888427 0.445417 -0.691982 0.560639 0.454802 0.279941 0.411391 0.867405 -0.397996 0.791274 -0.464203 -0.366909 0.886673 0.281405 -0.689572 0.378149 0.617652 0.268625 0.554378 -0.787722 0.0764369 -0.658165 0.748984 0.484737 0.85766 -0.171606 -0.915513 0.373314 -0.149907 -0.676597 -0.463238 0.572388 -0.3888 -0.90454 -0.175048 -0.490303 0.0166711 -0.871393 -0.35514 0.877212 -0.32307 0.927839 0.338202 0.157271 -0.264699 0.956588 -0.121959 0.19336 0.846092 -0.49673 -0.390971 -0.510073 -0.766138 -0.954665 0.240169 0.175878 0.425149 0.80907 -0.405775 -0.865167 -0.447772 -0.225802 -0.785833 -0.157708 -0.597992 0.432974 -0.899438 -0.0595437 -0.138605 0.805009 -0.576844 -0.940033 -0.236643 -0.245639 -0.188437 -0.98204 -0.00944842 -0.780677 0.603342 0.162852 -0.542409 -0.523574 0.657011 0.0503879 0.406528 -0.912248 0.429505 -0.132546 0.893284 -0.900991 0.315315 0.297979 -0.647742 -0.761127 0.0334059 0.525706 0.743145 0.413967 -0.974671 -0.0294901 0.221692 -0.728596 -0.148786 0.668589 -0.484974 -0.354623 -0.799402 0.420579 -0.616902 0.665241 0.847715 -0.364229 -0.385637 -0.522338 0.593953 -0.611868 0.823667 -0.460718 -0.330625 -0.445067 -0.528951 -0.722583 0.264793 0.851602 -0.452392 0.385092 -0.791602 -0.474416 -0.809541 0.54023 -0.229771 -0.861568 -0.448813 0.237207 0.53678 -0.822852 -0.186499 0.459815 -0.0158044 0.887874 -0.721168 -0.48412 0.495524 0.187409 0.888007 -0.419906 0.663941 -0.731503 0.155195 -0.848594 0.0050875 0.52902 0.940831 -0.261932 -0.215006 -0.351452 0.603081 -0.716083 0.20446 -0.576203 -0.791319 -0.58627 0.501188 0.636473 0.926928 -0.0658045 0.369424 -0.641675 -0.011096 -0.766896 -0.0940594 -0.579942 -0.80921 0.945573 -0.304518 -0.114716 -0.124422 -0.662566 0.738597 0.446926 -0.781212 0.43585 -0.443619 0.46368 0.766944 -0.667117 -0.459245 0.586556 0.612999 0.603499 0.509922 -0.0550741 -0.535791 0.842552 0.296864 0.941539 -0.159302 -0.206243 -0.889373 -0.40802 0.336839 0.0281752 -0.941141 0.967812 -0.123264 0.219422 0.301194 0.258075 -0.917976 -0.183643 0.372004 0.909884 -0.347598 0.626012 -0.698058 -0.760259 -0.633796 -0.14251 -0.385644 0.236376 0.891855 0.621453 -0.506585 -0.597635 0.200162 0.978497 -0.0497809 -0.979202 0.194451 0.0578913 0.722428 0.646966 0.243995 0.158777 -0.869227 -0.468225 -0.718826 -0.215795 0.660849 0.143271 0.588285 -0.795861 0.318415 -0.935595 -0.152556 -0.28972 -0.528257 -0.798127 0.721 0.40585 0.561644 0.467391 -0.859858 -0.2054 0.783292 0.149568 0.603392 -0.239579 0.95398 -0.180346 -0.771629 0.174987 -0.61153 0.202503 -0.51541 -0.832673 0.754209 0.482924 0.44492 -0.899339 -0.394081 0.189444 0.143171 0.377695 -0.914794 0.0609618 -0.875828 -0.478757 -0.0436801 0.700648 0.712169 0.994899 0.0869432 0.0511493 -0.0146874 0.805525 -0.59238 0.4842 -0.242368 0.840719 0.365924 0.903031 0.22502 -0.974301 0.0742295 0.212667 0.981723 0.183451 -0.050653 0.548622 -0.516954 -0.657094 0.865128 -0.156327 -0.476565 0.161476 -0.972014 0.17063 -0.00969125 -0.185598 -0.982578 0.429972 -0.536183 -0.726383 0.762702 0.283356 0.581373 0.457765 -0.768072 -0.44779 -0.164868 0.114053 0.979699 0.807646 0.584384 0.0787638 0.0611646 -0.875594 -0.47916 0.0196282 0.970159 0.241675 -0.856013 0.503334 0.117882 -0.945572 -0.105332 -0.307893 -0.189402 0.069558 0.979433 0.23982 -0.804136 0.543923 -0.580433 -0.425817 0.694102 0.101713 0.284696 0.953207 -0.378106 0.922919 -0.0724992 -0.436667 -0.801833 0.407904 -0.190837 0.78265 0.592486 0.55992 0.439969 0.70208 -0.95017 -0.268355 0.158628 -0.418339 0.827018 -0.375545 0.559525 0.0650545 -0.826257 0.839379 -0.0629376 0.539891 -0.622776 -0.760881 -0.182234 0.27094 0.295546 -0.916103 0.636847 0.671307 -0.379175 0.834456 -0.527118 0.160714 -0.674097 0.418555 0.608608 0.546637 -0.39847 -0.736485 -0.714053 0.667999 -0.209538 0.873728 -0.476589 -0.0972784 -0.00208848 0.0846749 -0.996406 -0.543074 -0.791479 0.280413 0.979155 -0.188685 -0.075189 0.0146972 -0.209901 -0.977612 0.431666 -0.873371 0.225581 -0.456565 0.498079 -0.737201 0.608397 0.602381 0.516711 0.427303 -0.218525 0.877302 -0.646173 -0.763153 -0.00759869 -0.82377 0.280258 -0.492807 -0.819905 -0.360308 0.444898 -0.546645 -0.0163863 -0.837204 0.935792 0.352519 -0.00484431 0.411294 -0.258468 0.874089 -0.102257 -0.766733 0.633769 0.909893 0.359295 -0.207369 0.44904 0.437052 -0.779326 0.156732 -0.930736 0.330401 0.0555813 -0.062191 -0.996515 -0.972211 -0.170986 -0.159907 0.357142 -0.390754 0.848387 0.96299 -0.225085 0.14828 -0.000786151 -0.651135 -0.758961 -0.0552713 0.870501 0.489053 0.502243 0.187265 0.844206 0.566982 0.596999 0.567559 -0.919986 -0.288136 0.265713 0.215888 -0.354038 0.909972 0.537662 0.842538 0.0323963 -0.217131 0.966083 -0.139778 -0.800334 -0.215602 0.559448 0.688865 -0.452585 0.566243 0.601579 0.543412 0.585497 0.499138 0.83476 -0.23246 0.534193 -0.739504 -0.409599 0.554951 -0.337127 0.76051 -0.852147 -0.424759 -0.305657 -0.122056 -0.747386 0.653082 0.93498 -0.250735 0.250886 0.779287 0.619927 -0.0916693 -0.154722 0.0319207 0.987442 -0.698879 0.707256 0.106571 -0.830434 -0.0473627 -0.5551 -0.784077 -0.152662 0.601596 -0.416817 -0.796369 -0.438246 -0.472407 -0.718659 -0.510255 0.475339 -0.851769 -0.220325 -0.819063 0.408358 0.402964 0.947746 -0.13311 0.289929 0.0213348 0.926862 0.374797 -0.848765 -0.501429 -0.167827 -0.793547 0.599622 -0.103619 -0.814882 -0.327239 -0.478416 -0.397537 -0.900378 0.17687 0.831599 -0.438964 -0.340226 0.582434 -0.801316 0.136614 0.0531359 -0.441795 -0.895541 -0.084161 -0.939697 0.331491 0.146409 -0.163303 -0.975652 -0.994291 0.00452987 -0.106603 0.325569 -0.848665 0.41686 -0.289212 0.205964 0.934845 0.857658 0.478138 0.189225 -0.0565116 0.64535 -0.761794 -0.463299 -0.524547 -0.714286 0.514867 0.795661 -0.319117 0.457194 0.87275 0.171118 0.181584 -0.703427 0.687182 -0.32535 0.936264 -0.132503 -0.141409 0.21961 -0.965285 0.267215 -0.957766 0.10621 -0.653487 -0.61116 0.446585 0.774051 0.2501 -0.581632 -0.502355 0.36284 0.784848 -0.624096 0.0358889 0.780523 0.655026 -0.314982 0.686824 0.376618 0.342913 0.860564 -0.591779 -0.665375 -0.455053 0.82772 -0.309115 -0.468323 0.220491 0.336012 0.915685 -0.0697615 -0.563055 -0.82347 0.409762 -0.787267 -0.460767 -0.505999 -0.70315 0.499546 0.402811 -0.641226 0.653125 -0.568728 0.701782 -0.42901 -0.644526 -0.25134 0.72209 0.274079 -0.893107 0.356708 0.672182 0.685598 0.279513 -0.240155 0.380426 0.893085 0.563693 -0.27631 0.778398 0.668873 -0.260494 0.696241 -0.582509 0.184967 0.791499 0.977112 0.0248308 -0.211271 0.308239 0.285325 -0.907512 0.230296 0.972843 0.0232588 -0.39906 0.136493 0.906709 -0.721697 0.458961 -0.518178 -0.0920362 0.977189 -0.191394 -0.804338 -0.54819 -0.22919 -0.819554 0.353154 0.451235 -0.309451 -0.879703 0.361057 0.0273508 -0.466461 0.884119 -0.0299501 0.531195 0.84672 -0.737814 -0.206053 -0.642785 -0.0573009 0.997656 -0.0373977 0.25786 -0.0142186 0.966078 0.167914 0.43787 -0.883218 0.423265 0.879028 -0.219445 -0.730349 0.621718 -0.282944 -0.413397 0.621463 0.665497 0.316951 -0.000253459 0.948442 0.0423145 0.972307 0.229844 0.214777 -0.976612 -0.0100211 -0.973104 0.226496 0.0420559 0.565451 0.798984 -0.204669 0.979655 0.184554 0.0788386 -0.527662 -0.728921 -0.436173 -0.917887 -0.0130349 0.396627 0.606646 -0.368066 -0.704633 -0.785873 -0.44029 0.434221 0.860868 0.322503 -0.393572 0.840089 -0.173575 0.513929 -0.101487 -0.475563 0.873808 0.796917 0.0760053 -0.599289 0.740425 0.608902 0.284621 -0.0459445 -0.798471 -0.600278 -0.711961 -0.266049 -0.649869 0.113419 0.990417 -0.0788043 0.783739 -0.0346023 0.620126 0.618091 -0.705045 0.347671 0.839564 0.380137 -0.388107 -0.475489 0.875231 0.0887792 0.169601 -0.60764 -0.775892 -0.52432 -0.0531644 -0.84986 -0.652028 -0.628484 -0.424107 0.738486 0.404993 -0.53909 0.0645889 -0.919753 -0.387146 -0.106665 0.361601 -0.926211 0.150745 -0.573928 0.804912 -0.917167 -0.352099 -0.18663 0.690538 0.386662 0.611269 0.769913 0.454227 -0.448231 -0.393788 -0.000998957 -0.919201 0.205681 0.847521 -0.489289 0.923424 0.166122 -0.345964 0.717742 -0.681399 0.143324 0.800914 0.296616 0.520149 -0.484773 -0.592024 0.643819 -0.722597 0.491808 -0.485776 0.318522 0.389784 -0.864067 0.984671 0.0157061 -0.173712 -0.532159 -0.843805 -0.0692803 -0.163101 -0.925939 -0.340639 -0.0405179 0.515469 -0.85595 -0.356432 -0.844111 0.400542 -0.964419 -0.26332 -0.0236536 -0.804081 0.504846 -0.313983 -0.235144 -0.511051 -0.826761 -0.0880996 -0.764714 0.638319 -0.531201 -0.00726166 0.847215 0.343885 -0.91769 0.198967 0.690447 -0.0147461 -0.723233 0.0594574 -0.783449 -0.618606 -0.630989 -0.768704 0.104626 -0.527767 0.84906 -0.0236686 -0.616538 -0.239618 0.749977 0.121254 0.989704 0.0760519 0.682917 0.296026 0.667827 0.278665 -0.616018 0.736796 -0.404252 -0.912044 0.0689689 0.144427 -0.974727 -0.170437 0.935446 0.219487 -0.277066 0.948056 -0.275709 0.158666 0.352194 0.912005 0.210255 0.0192411 -0.0630575 0.997824 0.837611 0.127813 -0.531104 0.525236 -0.292966 0.798936 0.236209 0.23704 -0.942347 -0.630205 0.237987 0.739056 0.560255 0.650072 0.513342 -0.165799 -0.395118 0.903545 -0.938866 0.329838 0.0986845 0.972598 0.0257036 -0.231067 0.0582676 0.697321 0.714387 0.0244076 0.968574 -0.247526 -0.317324 -0.942981 -0.10046 -0.0338599 0.271254 -0.961912 -0.0553952 0.0454479 0.99743 -0.156503 -0.373531 -0.91432 -0.932757 -0.359771 -0.0230212 -0.0915032 -0.0215285 -0.995572 -0.464972 0.880639 -0.0909677 -0.02861 0.632007 0.774434 0.931489 -0.314332 -0.183092 0.333434 -0.254773 0.907696 -0.27519 0.59797 -0.752796 -0.886399 -0.430296 -0.170712 0.871263 0.0891301 -0.482655 0.164796 0.0705564 0.983801 -0.146986 0.887618 0.436497 0.274849 -0.0975521 0.956526 0.216273 -0.674339 0.70604 0.598845 -0.0388059 -0.799924 -0.345853 0.658173 -0.668725 -0.770505 -0.55219 -0.318447 0.979769 0.131868 0.150541 0.144797 -0.203146 -0.968383 -0.190491 -0.218944 0.956962 0.340683 -0.0677034 0.937737 0.363028 -0.26241 -0.894065 0.223355 -0.971174 -0.0832643 0.832772 0.205799 -0.513943 0.528602 0.724888 0.44172 0.736746 -0.210889 -0.642442 0.832765 0.553604 -0.00500159 0.0960194 0.764494 0.63744 0.725716 -0.530022 -0.438648 -0.924851 -0.279244 0.258212 0.111686 -0.982057 0.151956 -0.194139 0.163583 -0.967239 -0.961841 0.272408 -0.0256055 -0.776346 -0.598405 -0.197987 0.343024 0.442686 0.828471 0.0599101 -0.97219 0.226401 0.83709 0.403801 0.369088 -0.278963 0.9426 -0.183536 0.807745 0.367489 0.460978 0.473206 -0.681422 -0.558337 0.72934 0.66466 0.162146 0.512593 -0.266635 0.816183 0.569332 -0.153371 0.807675 -0.449349 -0.893235 0.0147008 0.0978261 -0.0884481 -0.991265 -0.775978 0.408151 0.480906 0.000918978 -0.463235 0.886235 0.170443 -0.755249 0.632888 -0.684907 0.722082 0.0974629 0.137031 0.223296 0.965071 -0.617022 -0.695264 0.368635 -0.618942 0.426199 -0.659747 -0.861508 0.262319 0.434734 0.903923 0.374302 -0.206934 -0.811383 0.578874 -0.0810071 -0.426708 0.654787 -0.623838 0.725311 0.595663 0.345123 -0.618737 -0.0911235 -0.780295 0.610541 0.663054 -0.433128 0.0867564 0.923867 -0.372751 -0.0135469 -0.648549 -0.761052 -0.721238 -0.423784 0.547926 -0.126523 -0.860398 -0.493667 0.627262 -0.250199 -0.737525 0.127267 -0.617409 0.776279 0.753784 0.610199 -0.243858 0.934404 0.256361 -0.247322 0.401782 0.590773 0.699685 0.73782 -0.628703 0.245671 0.161721 0.303371 -0.939049 -0.370262 -0.544696 -0.752471 0.938722 -0.234538 0.252574 -0.895317 0.13903 0.423175 -0.782907 0.266189 -0.562317 0.11241 0.127158 -0.985492 -0.134182 -0.966169 -0.220256 -0.779206 -0.622646 0.0717651 0.339451 0.0389284 0.939818 0.917664 -0.280644 0.281304 -0.647205 0.0940839 0.756488 0.341366 0.400526 -0.850322 -0.0288438 0.973265 -0.227865 -0.0498003 0.288385 -0.956219 -0.0209565 -0.684881 -0.728353 -0.929437 -0.34268 -0.136808 -0.858922 0.0370642 -0.510764 -0.94341 -0.0036847 -0.331609 0.204223 0.300004 -0.931821 -0.54431 -0.426627 0.7223 0.601671 -0.792391 0.100539 0.300514 0.953738 0.00869358 0.946786 -0.162798 0.277658 -0.388183 0.807537 0.444069 -0.303825 0.779078 0.548387 0.910327 0.31479 0.268724 -0.908616 0.249984 -0.334552 -0.493019 -0.287631 0.821097 0.320178 0.417139 -0.850577 -0.794378 -0.303081 -0.526409 0.866146 0.34005 -0.366274 -0.946314 0.302564 0.113778 -0.972392 -0.120176 -0.200031 -0.343307 0.56732 0.748524 0.581076 -0.642974 -0.498933 0.967418 -0.0807218 0.239973 0.934751 0.202561 -0.291906 0.229142 -0.971977 -0.052485 0.078572 -0.337814 -0.937927 0.173111 -0.173744 -0.969456 -0.0457151 0.0625341 0.996995 -0.946855 0.317262 0.0530177 0.235258 0.774057 0.587783 0.38143 0.796775 -0.46868 0.916834 0.149958 0.370037 -0.443299 0.796248 0.411674 0.453502 -0.210499 -0.86604 0.159862 0.40804 -0.898859 -0.440948 0.624272 0.644863 -0.525166 0.750117 -0.401902 0.999659 0.0260627 -0.00166237 -0.232643 -0.494594 -0.837409 0.877225 -0.049963 -0.477472 0.707474 -0.630842 0.318621 -0.5637 0.806111 -0.180073 -0.246629 -0.777382 -0.578664 0.212866 -0.90078 0.378528 -0.169752 -0.580879 0.796093 -0.141434 -0.926432 -0.348885 0.179502 -0.766471 0.616686 -0.96935 -0.178153 -0.169178 0.763293 0.267848 -0.587912 -0.174999 0.634684 0.752696 0.30901 -0.136505 -0.941212 0.190888 -0.980055 0.0552629 -0.852861 0.330372 -0.40433 0.307636 0.900055 -0.308644 0.960918 0.268709 -0.0665708 -0.671145 -0.388731 -0.631232 -0.895072 -0.0770441 -0.439215 0.100392 -0.0780853 -0.991879 -0.954616 0.102999 -0.279462 -0.972609 -0.200508 -0.117593 -0.92322 -0.34925 0.160278 -0.407108 0.871504 0.273393 0.590235 0.684298 -0.428204 0.687643 0.0603244 -0.723538 0.679499 -0.640965 0.356995 0.255054 -0.918515 -0.302122 -0.777551 -0.101184 0.620625 -0.565895 0.808213 0.162954 0.33489 -0.539873 0.77226 -0.258742 0.731544 0.630789 -0.914113 0.244228 -0.323651 0.904609 -0.226363 0.361168 -0.527079 0.0858612 0.845468 -0.908191 0.308399 -0.282984 -0.578213 0.0224966 0.815576 0.234555 0.106846 0.966213 -0.491402 -0.859627 -0.139877 0.704875 -0.68939 -0.16701 -0.510159 0.29511 0.807866 -0.409508 -0.755776 -0.510984 0.11405 -0.984994 -0.129539 -0.340157 0.277142 -0.898602 0.985289 0.0503719 0.163302 0.560767 -0.233631 0.794328 -0.228614 0.806866 0.544705 -0.200048 -0.74636 -0.634766 0.308974 -0.948646 -0.0678608 -0.501759 -0.56442 0.655491 0.591932 0.798595 0.108912 0.0177005 -0.547573 -0.836571 0.29329 0.311057 0.904005 -0.560799 0.797927 -0.220948 0.885812 0.426105 0.183771 0.392678 -0.81183 0.432129 -0.941608 -0.333065 -0.0494192 -0.23784 0.829816 -0.504814 -0.62686 0.218548 0.747852 0.5692 0.714825 0.406247 0.772941 -0.610495 -0.172794 0.396401 0.0485055 0.916795 -0.307572 -0.0742841 -0.948621 0.188516 -0.832795 0.520494 -0.388086 0.576023 0.719435 -0.935593 0.212127 0.282255 0.138821 0.504467 0.852198 -0.148517 -0.665389 0.731574 -0.938556 -0.238675 -0.249293 0.872653 -0.202868 0.444209 0.566323 -0.485707 0.665858 -0.355526 -0.880293 0.314143 -0.235798 0.787279 -0.569729 0.265935 -0.798694 0.539784 -0.745305 -0.376729 -0.550086 0.872543 0.467299 0.142483 -0.805692 0.242282 0.540518 0.222538 -0.969021 0.107122 0.208628 0.256986 -0.943627 -0.642544 0.740372 -0.197449 0.22519 -0.392688 0.891676 -0.337933 0.89206 0.300051 0.532798 -0.644513 -0.548388 0.508071 -0.272627 0.81703 -0.870354 -0.438106 0.224826 0.41291 -0.515214 0.751039 0.78105 -0.570791 -0.253295 0.714864 0.655211 -0.24427 0.630232 -0.542262 0.555661 0.695865 0.445037 -0.563662 -0.914531 -0.394295 0.0903552 -0.518806 0.481359 -0.706494 0.230758 0.142425 0.962531 0.105128 -0.785066 0.610425 -0.12563 -0.927491 -0.352106 -0.43993 -0.569935 -0.694 0.131729 0.960447 -0.245336 -0.273309 0.0136012 -0.96183 0.318645 -0.649772 0.690117 0.893624 -0.13388 0.428382 0.834865 -0.203183 -0.511583 -0.776073 0.629203 0.0425966 0.200269 0.123374 0.971942 0.924965 -0.161045 0.344246 -0.280724 0.734579 -0.617728 -0.901502 -0.422625 0.0931747 0.767048 0.383293 0.514514 -0.451623 0.00201614 -0.892207 0.507367 -0.311895 -0.803306 0.134192 -0.40075 0.906307 0.152018 -0.567435 0.809264 -0.621951 -0.782906 0.0153297 0.371252 0.846873 0.38076 0.478053 0.725215 -0.495509 -0.102437 0.374248 0.921654 -0.794455 0.511208 0.327884 0.339335 -0.817634 -0.465108 -0.720955 -0.0962934 -0.686259 -0.748314 -0.613082 -0.253292 0.236009 0.750225 0.617626 -0.979713 0.200405 -0.000384891 -0.679865 -0.265913 0.683428 0.145825 0.621228 -0.769942 -0.836013 0.483368 -0.259688 -0.635732 -0.716893 0.286199 0.542227 0.6704 0.506511 0.754132 0.5393 0.374753 -0.542296 0.785069 -0.299302 -0.151663 0.988363 0.0117028 -0.468825 0.442987 -0.764177 0.301821 0.95053 0.0734671 -0.641051 0.767224 0.0205448 0.95935 0.0653211 -0.274556 -0.683569 -0.459182 -0.567349 -0.359206 0.734284 0.576019 0.373058 0.65979 0.652307 -0.568625 0.671337 -0.475366 -0.173344 -0.355392 -0.918503 0.0270705 -0.964167 -0.26391 -0.155823 0.797963 -0.582215 -0.78183 0.25411 -0.56936 -0.580311 -0.801862 0.142326 0.482509 0.364881 -0.796271 -0.883874 0.207232 0.41931 -0.228493 -0.377521 0.897368 0.655381 -0.584754 0.478058 0.7815 -0.354158 0.513644 -0.0284246 0.924389 0.38039 -0.814464 0.0194232 -0.579