# vtk DataFile Version 4.0
Generated by libgran
ASCII
DATASET POLYDATA
POINTS 1686 FLOAT
-30.82 1.17866 6.34158 -29.7476 0.843407 7.90956 -31.1329 0.885143 4.60941 -30.4766 2.14396 5.69841 -31.9006 0.512099 8.80516 -31.5235 1.15265 3.40011 -30.793 0.289021 12.5914 -30.933 -1.29507 13.3582 -30.9692 0.897488 11.4222 -30.5567 -0.322203 10.1796 -30.3087 1.39465 10.1033 -29.4166 1.48255 9.14664 -31.149 -2.43705 16.1465 -30.131 -2.33515 15.2972 -30.0445 -1.2053 15.1221 -29.1911 0.213425 14.5451 -28.5242 0.575707 15.1963 -28.556 0.923129 13.7214 -32.4895 -3.33095 14.1117 -34.7634 -3.40126 15.2915 -33.5614 -3.18678 14.765 -33.9929 -3.1018 16.4577 -35.5044 -3.90664 14.3034 -33.5257 -3.32468 17.5534 -33.5969 -1.87954 17.7608 -33.8794 -1.29283 18.7763 -32.5983 -1.3206 19.104 -32.5929 -2.59123 21.8758 -33.3039 -1.38776 22.5351 -32.6699 -1.6447 20.8137 -32.8453 -3.87072 22.1352 -34.1404 -4.93563 21.451 -32.9855 -1.43586 24.1879 -31.955 -2.37177 19.6158 -33.531 -5.17184 19.3967 -34.465 -6.07168 18.7988 -32.3449 -5.74362 19.2122 -31.2964 -6.10239 19.1714 -30.6969 -5.40089 20.7284 -31.4141 -5.00905 22.2697 -30.0382 -4.18718 21.252 -34.046 -7.53122 19.485 -26.3286 -11.2929 21.4008 -27.1506 -10.5271 20.6896 -28.5128 -11.2377 20.3479 -26.261 -11.1413 23.4981 -27.708 -11.0539 23.514 -30.0457 -11.9758 20.1909 -31.4049 -8.77109 18.2301 -30.2456 -8.16894 17.715 -31.0841 -10.05 18.4024 -32.5914 -9.73765 18.7497 -30.5438 -11.3492 19.1908 -33.3829 -8.93072 19.8179 -29.3069 -9.24995 16.5375 -29.2621 -10.1558 15.1024 -28.5874 -12.4823 15.2014 -28.0842 -11.9911 14.0726 -29.2617 -11.1867 14.2494 -27.4561 -12.2491 16.4876 -26.2162 -11.613 14.0889 -25.9279 -12.2163 17.0763 -25.8485 -13.3373 16.9326 -25.0575 -8.95864 11.2786 -26.0277 -9.32028 10.7722 -26.4587 -8.1729 11.9215 -23.8254 -9.10268 11.7574 -23.5524 -9.26962 10.1325 -23.8757 -9.49096 13.5802 -24.7766 -10.5387 14.4405 -36.2953 13.9582 1.84945 -35.9535 13.4359 -0.0341399 -35.624 12.4974 -0.137684 -35.7588 14.6908 3.16094 -35.412 14.6797 4.20193 -34.5965 15.2227 4.40233 -34.981 14.621 5.10237 -38.6484 12.063 -1.22939 -39.4506 12.5559 -2.16721 -37.9672 13.6305 -1.48393 -38.0547 11.8761 -0.308265 -38.4322 10.2902 -1.03434 -38.9086 9.06209 -0.734351 -39.4448 7.77209 -0.217595 -43.4055 7.59628 -1.96297 -43.1599 6.80493 -2.79437 -44.0505 8.89866 -2.83846 -43.5134 8.99793 -0.541824 -40.1849 7.08383 -0.570511 -38.8575 6.35112 -1.12078 -38.8903 6.66371 -2.40917 -38.2823 5.83156 -2.90336 -38.4175 4.96638 -1.58566 -38.8219 8.20437 -3.25718 -40.141 6.97296 -3.26745 -38.6464 8.66267 -4.50325 -38.1039 3.57983 -2.10165 -38.864 3.35346 -0.688451 -37.8822 5.44329 -9.40855 -36.8419 5.37451 -10.2338 -37.6129 3.75548 -10.1984 -38.3627 6.96076 -11.0983 -38.8801 6.31209 -11.7729 -39.5956 6.9365 -10.1294 -39.8049 5.77547 -12.6635 -40.113 6.28783 -10.804 -38.331 2.09824 -10.1601 -39.6933 7.19162 -7.97605 -40.1567 7.12412 -9.23191 -40.0321 7.08237 -6.80166 -40.5891 6.76658 -5.87731 -41.4435 6.25912 -5.35958 -40.7461 6.18962 -4.55584 -42.6264 7.45386 -5.79448 -41.562 7.31127 -3.51251 -35.4017 2.16864 -12.1373 -34.0088 2.62956 -13.0157 -34.5947 1.22388 -11.7709 -35.9759 3.3171 -11.7917 -36.4687 4.48767 -12.2289 -38.0627 4.11711 -12.4363 -34.9051 -0.414517 -11.4738 -38.9434 3.52125 -13.1573 -37.7732 -1.38034 -9.23245 -37.3036 -0.111323 -9.27491 -38.514 0.414579 -9.65026 -36.268 1.18346 -9.43567 -26.1102 12.6865 19.2383 -26.4822 13.7539 19.9385 -24.9 13.5826 19.7565 -27.3793 12.2112 17.9566 -29.2283 13.0914 18.8793 -30.0814 10.8005 17.1696 -29.7619 12.2403 16.0189 -30.9081 9.83911 16.9869 -30.6357 9.06142 17.6921 -28.9562 11.9156 15.5234 -32.618 9.70369 16.9341 -31.284 9.87226 15.5662 -33.4225 9.64804 18.4161 -26.4768 4.7715 12.3454 -26.2207 3.66398 12.372 -26.8572 6.00867 12.6499 -28.3269 5.18604 12.87 -27.5231 2.95215 13.378 -27.4128 2.42435 11.9759 -27.7635 2.38404 14.8201 -27.1497 1.58915 10.8419 -27.0159 1.71339 9.7835 -30.0713 9.28981 14.8579 -31.0961 9.24583 14.0119 -28.7319 9.22173 14.468 -30.9003 7.70187 13.1412 -32.1094 9.00642 12.8299 -31.3107 6.41609 13.1261 -29.8542 6.03124 13.0524 -32.4759 6.08167 4.82754 -33.1982 5.40249 3.94156 -32.3972 6.97061 5.60356 -31.6049 5.47359 6.162 -34.7611 4.28037 4.14558 -32.7505 3.37864 5.77427 -35.8926 4.44197 3.41169 -35.3805 4.57819 1.99259 -38.0262 2.47265 1.52888 -36.4439 2.47361 1.95185 -39.1515 2.68044 0.853885 -38.9382 2.21363 -0.910015 -35.6071 4.16118 1.06759 -35.9349 1.91253 3.30404 -32.0382 5.89794 10.8464 -31.4635 8.24638 9.86501 -32.9474 8.42218 10.7776 -33.2934 8.74159 11.7798 -34.0156 7.6376 12.1183 -32.5361 10.3757 12.0864 -34.414 6.29898 12.6993 -33.4242 2.86719 8.32231 -33.1792 2.96842 9.62527 -32.2874 3.08192 6.70767 -32.8425 3.50861 10.869 -25.9768 23.1873 27.6053 -26.5546 21.9541 28.0649 -26.0987 22.698 29.1631 -25.6612 23.3596 26.3252 -25.9076 24.8449 26.9704 -26.5353 26.1027 27.0525 -23.1679 23.0952 27.6278 -22.9062 23.2417 29.9538 -23.7233 23.9228 31.1116 -22.6111 23.0108 28.678 -22.1733 22.6729 27.7149 -23.7261 24.9916 28.2136 -23.7256 24.0221 32.3448 -25.3953 27.2018 32.524 -24.9577 28.124 33.379 -25.8824 29.0827 32.6486 -25.7608 26.615 31.6574 -24.8754 25.8221 31.4088 -23.3463 28.5135 34.4347 -25.6618 25.048 30.6953 -21.0065 25.2307 34.2078 -21.3183 23.9454 34.3462 -20.7686 26.3055 34.2504 -19.7121 26.8087 35.1097 -20.6706 27.7425 34.7109 -18.2199 26.3219 35.8472 -18.2485 27.5844 35.515 -21.5815 28.7696 34.6037 -19.6371 28.7642 34.2476 -28.159 23.7372 32.33 -28.4 26.0067 32.7561 -30.6644 25.1088 34.7175 -30.6312 24.0038 33.823 -30.2284 23.3521 32.0819 -26.8841 23.3499 32.2624 -32.1179 21.3732 30.0276 -32.6795 22.2478 31.4847 -30.8761 21.0198 29.7045 -30.0401 20.6231 29.3256 -32.727 23.2606 32.7732 -33.6551 22.945 32.5757 -35.3615 23.63 32.3326 -36.0611 23.6729 31.0028 -35.739 22.7818 30.5134 -36.8585 25.182 30.2177 -37.4327 24.9892 31.8289 -37.7645 25.767 30.8416 -36.8652 22.9364 32.2928 -37.4423 25.9382 33.4523 -37.4188 27.0365 31.587 -41.3275 26.9099 34.6618 -40.6205 27.9557 34.2442 -39.7386 27.0985 33.7673 -38.3409 26.9204 33.5354 -41.1534 27.289 32.5004 -37.1916 27.0141 33.2213 -37.5143 11.0619 20.4586 -37.9945 10.1236 21.2684 -39.0059 11.6183 20.9315 -36.0918 10.5227 19.8219 -36.857 12.0643 19.6164 -35.0528 8.97466 19.7707 -34.1268 8.01325 19.1982 -34.636 7.35986 18.4087 -32.9807 7.29869 18.6602 -35.2238 6.38277 17.7248 -35.6057 6.0724 19.0737 -31.365 5.37062 18.4827 -30.7666 6.29058 18.2031 -41.7575 13.036 19.3145 -42.6615 12.5319 20.1491 -43.948 12.482 19.1557 -41.6686 14.5127 19.5357 -42.8554 14.5545 18.668 -40.5488 10.1772 17.8854 -40.4182 11.7685 18.5412 -40.2415 9.7104 18.8598 -39.8895 9.19153 19.6389 -38.0889 9.05226 19.1995 -39.306 8.35919 20.3068 -30.1517 16.3841 21.5591 -31.317 16.5354 22.1814 -30.2783 16.098 23.4312 -29.1605 15.7078 20.9269 -30.0116 15.6176 19.831 -32.245 17.4036 22.3774 -31.8005 18.3152 23.8154 -30.7884 18.8667 25.3719 -34.3125 12.0763 18.514 -33.5545 11.6356 19.484 -32.4977 12.4204 18.7272 -35.0037 13.1461 18.1315 -36.2158 12.539 18.7544 -31.3873 12.2772 19.5997 -31.03 13.2106 19.6339 -29.5907 20.1238 25.9049 -29.7342 18.5723 25.6166 -30.5369 20.2465 28.0287 -31.8466 20.4098 26.853 -29.6106 17.0189 25.7249 -29.1372 15.7868 26.5806 -31.3727 20.7107 24.5333 -32.4623 20.1439 25.4683 -31.1457 22.0017 24.7569 -32.6076 22.8501 24.4126 -34.2308 22.749 24.474 -34.0916 24.1727 22.8495 -5.78873 22.8422 37.6964 -4.79758 22.7636 37.8034 -7.05386 22.43 37.769 -5.302 22.0678 37.2922 -7.79152 23.59 38.8341 -8.6426 22.1596 38.2674 -8.65372 23.2466 38.4617 -8.63067 24.1229 38.943 -4.60682 21.0422 37.5238 -3.52454 21.6693 36.8707 -4.24384 19.3433 37.6253 -9.57013 21.3111 37.2314 -5.33573 17.6403 39.0268 -5.4863 18.4669 37.7389 -6.02599 16.3998 39.2965 -6.35786 15.3907 39.6539 -3.69549 18.7382 38.5853 -0.865992 22.9372 37.7936 -2.02073 23.0561 37.1451 -2.19313 21.8345 37.0259 0.173397 24.4934 37.6479 -2.04943 24.7012 36.8177 -2.38488 20.5957 36.8965 -2.19835 26.4641 37.2195 0.503695 28.8793 37.4132 1.38096 27.6699 38.098 -2.30624 28.1191 36.9252 2.3138 27.251 37.2232 -2.98558 27.433 38.3329 -20.2264 30.771 41.9457 -19.0542 30.2159 41.6527 -20.3337 30.7297 43.6442 -21.5381 30.331 42.2034 -17.9459 28.9114 44.0624 -18.3372 29.267 45.6183 -17.401 28.2669 42.5486 -15.1147 27.3171 40.63 -15.9095 27.1658 41.6852 -14.2508 25.9192 40.4364 -16.9675 27.0992 41.8757 -16.8806 25.9348 42.8115 -15.9978 25.4226 42.2222 -13.0723 25.8297 41.2305 -13.8962 25.366 41.8694 -16.7722 25.0427 44.1264 -11.2317 22.2219 41.8259 -12.4407 22.6084 42.2289 -11.0754 22.7122 40.9684 -10.3038 22.314 41.4646 -12.6671 23.5563 43.3146 -13.1138 22.5248 44.0972 -13.2459 25.0331 43.1717 -10.2522 23.7973 40.6612 -14.8485 25.0206 42.5999 -9.88501 25.8822 38.61 -9.3147 24.7191 38.2781 -10.4952 25.4481 39.9748 -10.5449 26.426 40.1775 -11.4522 26.04 38.6639 -10.4067 25.7683 40.918 -18.9535 34.0225 39.3653 -18.9933 35.0087 37.7349 -17.9564 34.3507 40.1823 -17.7211 35.9301 39.9611 -17.476 35.6605 40.8923 -17.9425 36.53 40.7299 -17.8391 37.6465 40.2004 -18.8829 34.6697 36.6826 -19.5635 36.1154 37.2376 -16.8889 36.8459 41.6017 -17.868 39.4355 44.1677 -19.5726 39.3613 43.4891 -19.7171 39.8761 44.5247 -19.8385 38.6975 42.075 -21.2329 38.8576 43.2025 -18.4304 38.4158 40.9349 -16.7856 37.9624 41.0722 -19.4959 41.452 46.1216 -18.1761 41.9576 44.9885 -19.1161 40.7866 47.2083 -20.2904 40.4492 45.8338 -18.0009 42.0901 43.7413 -16.8106 42.6373 44.6739 -19.8243 38.319 47.9617 -21.2148 37.174 50.783 -20.3554 38.1744 50.6136 -21.3577 39.0433 51.2787 -19.3358 37.9211 49.4641 -17.6716 38.5607 49.5826 -22.1081 39.9604 51.0774 -16.3709 27.1119 38.3537 -15.6821 26.8084 37.2577 -15.7514 28.1986 37.101 -15.5149 25.252 37.2209 -16.8299 28.5926 36.1169 -14.4838 24.6479 38.37 -12.9726 25.3978 38.5121 -18.2148 28.6213 35.0458 -18.376 29.7834 33.88 -17.7248 29.0269 33.8196 -17.4559 29.9431 33.5223 -18.6019 30.863 35.5876 -18.2762 30.2665 36.6268 -21.3159 29.5119 36.583 -21.6833 30.7652 35.5549 -21.2562 32.8186 41.1484 -22.9199 32.2915 41.2179 -20.7047 31.9361 40.3208 -21.124 31.9076 39.1104 -24.1
[...]
POINT_DATA 1686
FIELD FieldData 1
normals 3 1686 double
-0.325482 0.270018 -0.906174 0.746836 -0.0652367 0.661801 0.0124951 -0.563537 -0.825996 0.668888 0.695284 0.263001 -0.450937 0.838061 0.3071 -0.403041 0.831043 -0.38331 -0.360394 0.903594 -0.231591 -0.500422 -0.680492 0.535265 0.184194 -0.295126 -0.937536 0.228285 -0.924565 -0.305066 0.476272 0.792285 -0.381379 0.415805 -0.704381 -0.575286 -0.439556 -0.794674 0.418668 0.578465 -0.692777 -0.430626 0.664888 0.437075 -0.605715 0.188518 0.98165 0.0287026 -0.478396 0.619368 -0.622511 0.446612 -0.271946 -0.852398 -0.788249 0.582016 -0.199804 -0.918372 0.223355 -0.326658 0.283629 0.437842 -0.853141 -0.147895 0.52282 0.839515 0.177314 -0.72873 -0.661447 0.615045 -0.745708 0.256201 0.543865 0.699439 0.463677 -0.826358 -0.112732 0.551746 0.454747 -0.140505 0.879468 0.603396 -0.762952 0.231986 -0.107596 0.440518 0.891272 0.526371 0.183587 -0.830198 -0.855826 -0.516538 0.0273921 -0.439259 -0.548365 -0.711581 0.425956 -0.488611 0.76146 0.18857 -0.910661 -0.367612 0.79498 -0.0904476 0.599856 -0.139013 -0.990289 0.00187323 0.391182 -0.481336 -0.784406 0.657234 0.122569 0.743653 -0.0576561 0.578928 0.813338 -0.659622 -0.187086 0.727941 0.716283 0.634786 -0.289803 0.558045 -0.46925 0.684391 -0.214091 0.975284 0.0546478 -0.607909 -0.209487 -0.765874 -0.754295 -0.501129 0.424157 0.755605 0.390632 0.525802 -0.691334 0.478071 0.541762 -0.778575 -0.236978 -0.581087 -0.500088 -0.843238 -0.197135 0.659174 -0.24109 -0.712295 0.82083 -0.435666 0.36937 -0.686422 -0.123329 0.716669 -0.280468 -0.863554 0.419062 -0.105059 0.930258 0.351542 0.279514 -0.839916 -0.465202 -0.234691 -0.0659483 -0.96983 0.439239 -0.330629 0.835316 0.942384 0.160551 -0.293489 -0.235098 0.964933 -0.116763 0.692031 0.563766 0.450845 0.925585 0.217527 0.309796 0.836121 -0.530942 0.137852 0.756689 0.590049 0.281539 0.895451 0.053227 -0.441967 -0.0747533 -0.308414 -0.948311 -0.505725 0.838971 0.20092 0.336631 -0.197264 0.920742 0.609615 -0.364208 -0.704075 -0.386907 -0.191017 0.902117 -0.514041 -0.856747 -0.0417957 -0.194783 0.141874 0.970531 0.146992 -0.380423 -0.913056 -0.182547 0.558002 -0.809512 0.731298 0.590722 0.340956 -0.384465 -0.601772 0.700041 0.430994 -0.0587549 0.90044 0.815459 0.543018 0.200397 -0.0274076 -0.856995 0.514596 -0.829659 -0.364071 -0.423225 0.653805 0.710569 0.260059 0.621051 0.670099 0.406527 0.24362 -0.915716 -0.319552 -0.720098 -0.312445 0.619546 0.183903 -0.977555 -0.10279 -0.688993 0.722088 -0.0622709 -0.443343 -0.0692666 -0.893672 0.043999 0.580286 -0.813223 -0.640076 0.761993 -0.0983318 0.923982 -0.289299 0.250126 -0.403427 0.443414 0.800395 -0.436246 0.756009 -0.487996 0.171819 -0.0761427 -0.982182 0.0366056 -0.941322 0.335518 0.504692 0.784652 -0.36001 -0.814428 -0.446762 -0.370284 -0.329231 -0.326351 -0.88606 0.276949 -0.44523 -0.85151 -0.483173 -0.671603 0.561687 -0.464656 0.779281 0.420496 0.57566 0.710502 -0.404725 -0.195328 -0.908533 -0.369343 -0.478872 0.562632 0.673889 -0.996292 -0.0860331 -0.000727124 -0.753998 -0.586891 0.295034 0.0715246 -0.450594 -0.889859 -0.236574 0.061774 0.969648 -0.52276 -0.748701 0.407639 0.270495 -0.707015 0.653423 -0.192889 -0.774514 -0.60243 -0.609317 0.59776 0.520976 0.0523 -0.913541 0.40337 -0.906657 0.406074 0.114358 -0.209295 0.336576 0.918103 -0.276244 0.788672 -0.549259 -0.606605 0.785079 0.125225 -0.927864 0.213935 0.30545 0.46505 0.674857 -0.572971 -0.120885 -0.730817 0.671784 0.353622 0.934525 0.0401714 -0.846357 0.236045 -0.477454 -0.747718 -0.606605 0.27009 -0.189549 -0.907584 -0.374649 -0.132985 0.0107483 -0.99106 -0.401085 0.859953 -0.315612 0.870665 0.409061 0.273152 -0.339708 0.934962 -0.102196 0.164981 0.885723 -0.433908 -0.382979 -0.422902 -0.821268 -0.754961 0.644498 -0.121058 0.827242 0.473121 -0.303031 -0.886173 -0.0524029 -0.460381 -0.626161 0.14461 -0.766166 0.0156868 -0.934508 0.355596 0.335274 0.505326 -0.795133 -0.84235 -0.0268329 -0.538263 -0.569972 -0.804528 0.166935 -0.470428 0.830005 -0.299648 -0.867521 -0.108587 0.485403 0.466453 0.0599778 -0.88251 0.0630325 0.0529385 0.996606 -0.894385 0.382425 0.232005 -0.638287 -0.725088 0.258529 0.513954 0.854749 0.0724909 -0.955714 0.032125 0.292539 -0.664112 0.0132593 0.747516 -0.55384 -0.514541 -0.654606 0.423721 -0.581369 0.694601 0.816946 -0.320664 -0.479347 -0.683175 0.444909 -0.579076 0.746269 -0.642423 0.174285 -0.278553 -0.686401 -0.67176 0.593133 0.574337 -0.564207 0.474373 -0.857562 -0.198892 -0.734758 0.446987 -0.510229 -0.884805 -0.428219 0.183705 0.571663 -0.81307 0.110083 0.0889443 -0.0873597 0.992198 -0.633357 -0.766536 0.106213 -0.0101769 0.976301 -0.216178 0.782119 -0.520721 0.342256 -0.929514 -0.355579 0.0978111 0.990452 -0.0808253 0.111675 -0.201976 0.517175 -0.831706 0.714034 -0.380953 -0.587392 -0.929507 0.206384 0.305651 0.652784 0.207342 0.728617 -0.195769 0.0014094 -0.980649 0.40901 -0.468217 -0.783252 0.940597 0.0360594 0.337604 -0.143837 -0.768422 0.62357 0.239444 -0.702318 0.670385 -0.688687 0.568215 0.450379 -0.795208 -0.392415 0.462229 0.449227 0.71182 0.539914 -0.272949 -0.392169 0.878466 0.308068 0.922319 -0.233285 -0.125478 -0.946448 -0.297473 0.609336 -0.00116751 -0.792911 0.854307 0.100065 0.510046 0.527398 0.215896 -0.82173 -0.517625 0.440125 0.733726 -0.25161 0.710675 -0.656989 -0.829414 -0.522597 -0.197397 -0.373493 0.221369 0.900832 0.567247 -0.538424 -0.623162 0.32084 0.946877 0.0220241 -0.948537 0.310909 0.0601154 0.790963 0.533471 0.299645 0.0609832 -0.848804 -0.525179 -0.756048 -0.167742 0.632657 0.234169 0.617864 -0.750606 0.203583 -0.955728 -0.212459 -0.333609 -0.43305 -0.83736 0.753701 0.267019 0.60053 0.361168 -0.897287 -0.253837 0.798765 0.0248983 0.601127 -0.125922 0.983583 -0.129261 -0.726724 0.310467 -0.612766 0.158684 -0.482438 -0.861437 0.812641 0.364625 0.454602 -0.945018 -0.29162 0.147985 0.181263 0.556629 -0.810746 -0.130544 -0.72861 -0.672373 0.0566725 0.518237 0.853357 0.999869 -0.0151052 0.00590018 0.0413229 0.918664 -0.392873 0.49229 -0.471656 0.731568 0.46373 0.790828 0.399431 -0.952173 0.108507 0.285643 0.992177 0.103085 -0.0704086 0.499155 -0.535901 -0.680921 0.85072 -0.235279 -0.47002 0.0154637 -0.994946 0.0992177 0.0177723 -0.110062 -0.993766 0.384982 -0.54163 -0.747279 0.775719 0.148597 0.613334 0.360695 -0.799454 -0.480388 -0.200959 0.0751575 0.976712 0.881055 0.44609 0.157311 -0.0450359 -0.842842 -0.536274 0.153497 0.937661 0.311818 -0.774597 0.622046 0.114272 -0.931851 0.0629143 -0.357346 -0.232272 0.0200336 0.972444 0.0897848 -0.871009 0.482993 -0.66912 -0.386503 0.634739 0.0949704 0.193749 0.976444 -0.236858 0.971484 -0.0107987 -0.571798 -0.756451 0.317537 -0.104587 0.755275 0.64701 0.582536 0.298092 0.75617 -0.985239 -0.139791 0.0988062 -0.278252 0.906033 -0.318872 0.603622 0.0488205 -0.795774 0.794044 -0.226911 0.563919 -0.474414 -0.784199 0.399954 0.355296 0.320555 -0.878071 0.936263 0.24517 -0.251601 0.456068 -0.69311 0.558212 -0.555321 0.801635 0.221358 0.486311 -0.784371 -0.38505 -0.278884 0.757246 -0.590595 0.552638 -0.763627 0.333864 0.373346 -0.197779 -0.906365 -0.882471 -0.455617 0.116866 0.772829 -0.516781 0.368339 0.294613 -0.52147 -0.800795 -0.0872944 -0.831838 0.548111 0.0486402 0.385421 -0.921458 0.549821 0.534542 0.641842 -0.0190386 -0.0679313 0.997508 -0.884995 -0.436176 -0.162895 -0.401512 0.386195 -0.830447 -0.986386 0.123504 0.10858 -0.20046 -0.0817481 -0.976285 0.94181 -0.0333975 0.334482 -0.0493843 -0.0978391 0.993976 -0.634509 -0.433379 0.639985 0.986587 -0.0854933 0.139061 0.813968 -0.0537736 -0.578416 -0.403119 -0.746842 0.528888 0.226572 -0.124917 -0.965951 -0.938739 0.0264005 -0.343617 0.0999551 -0.411018 0.906131 0.764623 -0.551347 0.333719 -0.0864666 -0.64157 -0.762175 0.0108071 0.84186 0.539588 0.433642 0.0696765 0.898387 0.578467 0.481889 0.658148 -0.983124 0.180297 -0.0310024 -0.225048 -0.260373 0.938914 0.831756 0.524412 0.182139 0.291923 0.889515 -0.351488 -0.920086 0.28248 0.271379 0.278598 -0.667597 0.690432 0.635879 0.265775 0.724583 0.619287 0.775132 -0.125118 0.475722 -0.776355 -0.413474 0.451814 -0.466224 0.760591 -0.857863 -0.302862 -0.415146 -0.352118 -0.777029 0.521766 0.825497 -0.455026 0.333926 0.847413 0.529807 0.0345688 -0.242189 -0.0369737 0.969524 -0.620415 0.761174 0.188943 -0.841504 0.0872046 -0.533167 -0.781709 -0.188328 0.594528 -0.469141 -0.696559 -0.542873 -0.504421 -0.695854 -0.51122 0.48673 -0.774404 -0.404218 -0.760705 0.283694 0.58382 0.991151 -0.0785506 0.107001 0.023043 0.876258 0.48129 -0.828036 -0.554125 -0.0854536 -0.839153 0.532894 0.108841 -0.862196 -0.343365 -0.372449 -0.295973 -0.94704 0.124564 0.78631 -0.319975 -0.52852 0.65896 -0.751826 -0.0229906 -0.0994962 -0.294359 -0.950502 0.256381 -0.919522 0.297907 0.105809 -0.093 -0.990028 -0.946642 -0.321045 -0.0282659 0.614771 -0.687988 0.385653 -0.110613 0.1467 0.982977 0.782045 0.617539 0.0839701 -0.372694 0.736495 -0.564512 -0.545098 -0.48518 -0.683717 0.257344 0.938652 -0.22958 0.343991 0.908527 0.237171 0.353352 -0.753562 0.554335 -0.492908 0.854368 0.164612 -0.447571 0.319094 -0.83538 0.429693 -0.890335 -0.150558 -0.385016 -0.800703 0.458953 0.503152 0.471421 -0.724293 -0.294326 0.114586 0.948811 -0.576335 -0.0549539 0.815364 0.595849 -0.610059 0.522296 0.469042 0.0136588 0.88307 -0.735369 -0.385012 -0.557671 0.744383 -0.221512 -0.629942 0.353037 0.134023 0.92596 -0.199545 -0.422984 -0.883893 0.369862 -0.660146 -0.653766 -0.424872 -0.811385 0.401421 0.494086 -0.737694 0.460095 -0.633111 0.74475 -0.210995 -0.546302 -0.419638 0.724885 0.336559 -0.931863 0.135498 0.68437 0.648129 0.334015 -0.139521 0.184447 0.972889 0.654774 -0.472478 0.589945 0.771555 -0.398163 0.496154 -0.43743 -0.0116446 0.899177 0.9279 0.0921307 -0.361266 0.156344 0.490293 -0.85742 0.211055 0.959516 0.186507 -0.235598 -0.0719725 0.969182 -0.789852 0.517324 -0.329408 -0.104735 0.993029 0.0540708 -0.812739 -0.529855 -0.2423 -0.748471 0.223578 0.624342 -0.178167 -0.939542 0.292432 0.138258 -0.657696 0.740487 0.0885373 0.320284 0.943175 -0.818671 -0.0657765 -0.570483 -0.0497207 0.97798 0.202689 0.295256 -0.381729 0.875847 0.255438 0.60453 -0.754516 0.701792 0.709946 -0.0588525 -0.466486 0.869498 -0.16237 -0.221365 0.599861 0.768872 0.245121 -0.269636 0.931242 0.348488 0.846871 0.401704 -0.145065 -0.943526 -0.297851 -0.825652 0.502166 0.257155 0.808441 0.585565 -0.0594638 0.970461 -0.230344 0.0717487 -0.734138 -0.304558 -0.606866 -0.878632 0.210237 0.428726 0.468271 -0.359305 -0.807231 -0.926143 -0.199196 0.320282 0.939786 0.0776158 -0.332833 0.705076 -0.53094 0.470075 -0.489224 -0.639899 0.592612 0.830539 -0.134335 -0.540517 0.869035 -0.0255305 0.494092 -0.30531 -0.362898 -0.880392 -0.655304 0.266837 -0.706664 0.535039 0.814062 0.225913 0.52547 -0.659171 0.537936 0.123246 -0.992253 -0.0156174 0.982714 0.00808746 -0.184952 -0.0195849 0.876989 0.480111 0.0368907 -0.261342 -0.964541 -0.29004 0.555108 -0.779572 -0.730807 0.0400781 -0.681406 0.743062 0.47534 -0.471074 -0.054285 -0.778747 -0.624985 -0.123584 0.611379 -0.781628 0.221528 -0.777742 0.588254 -0.954862 -0.217361 -0.202465 0.809507 0.173639 0.560845 0.70176 0.57635 -0.418751 -0.430098 0.246025 -0.868613 0.268919 0.916153 -0.297231 0.920104 0.159643 -0.357662 0.651185 -0.756509 -0.0604307 0.847437 0.0836267 0.524267 -0.521708 -0.68012 0.515032 -0.684801 0.673883 -0.277362 0.317427 0.579368 -0.750715 0.944367 -0.127038 -0.303369 -0.719299 -0.654144 -0.233891 -0.392849 -0.755514 -0.524278 -0.026507 0.726996 -0.68613 -0.519713 -0.832909 0.19016 -0.999411 -0.023057 0.0254271 -0.693752 0.719624 -0.0291633 -0.479106 -0.193396 -0.856187 -0.143223 -0.896845 0.418516 -0.452106 -0.181656 0.87327 0.222762 -0.970232 -0.0950075 0.636569 0.110543 -0.763256 -0.0887922 -0.576055 -0.812574 -0.725362 -0.686599 -0.0493193 -0.625021 0.780511 -0.0122644 -0.731047 -0.443747 0.518323 -0.0282545 0.973277 0.227889 0.366355 0.372475 0.85267 0.192447 -0.608781 0.769643 -0.173908 -0.981256 -0.0830267 0.277649 -0.958882 -0.0587973 0.932443 0.35747 -0.052589 0.995429 -0.0918996 -0.0260096 0.206566 0.978426 -0.00351754 0.230908 0.1173 0.965879 0.660772 0.0289237 -0.750029 0.732678 0.0677749 0.677192 -0.0280508 0.105822 -0.993989 -0.485394 0.259276 0.834966 0.513349 0.849965 0.118457 -0.399338 -0.418071 0.815932 -0.834096 0.551426 0.0146335 0.951034 -0.274876 -0.141338 0.0273913 0.463746 0.885544 0.303509 0.951113 0.0571527 -0.588341 -0.725739 -0.356593 0.276118 0.487368 -0.828391 -0.298203 -0.175922 0.938151 0.00421769 -0.0879018 -0.99612 -0.913467 -0.145042 -0.380184 0.221508 0.264971 -0.938469 -0.274207 0.961444 -0.0208653 -0.159735 0.49246 0.855551 0.87607 -0.476197 -0.0757548 0.145712 -0.42826 0.89183 -0.132014 0.609344 -0.781839 -0.789139 -0.477589 -0.386223 0.951762 0.16263 -0.260193 -0.0761139 0.0411905 0.996248 -0.311025 0.857262 0.410325 0.0487764 -0.118491 0.991756 0.0916946 -0.68191 0.725666 0.690243 -0.0732903 -0.719856 -0.146545 0.599332 -0.786973 -0.377402 -0.697938 -0.608647 0.750129 0.339791 0.567317 0.623377 -0.103968 -0.774978 -0.557149 -0.31549 0.768148 -0.0661901 -0.133412 0.988848 0.347082 -0.170588 -0.92219 0.458819 -0.881795 -0.109193 0.924437 0.13605 -0.35624 0.527887 0.61377 0.587045 0.792404 -0.237685 -0.561784 0.892464 0.405765 0.197137 0.10006 0.64345 0.758921 0.704348 -0.575713 -0.415268 -0.981567 -0.182923 0.0553664 -0.025231 -0.998446 0.0496905 0.0273398 0.189811 -0.98144 -0.903364 0.371556 -0.214198 -0.66425 -0.637271 -0.390714 0.402352 0.30376 0.863622 -0.0749913 -0.989251 0.125538 0.795542 0.595595 0.111266 -0.470241 0.821573 -0.322321 0.788681 0.572854 0.223206 0.498064 -0.712117 -0.494795 0.609408 0.7862 -0.102523 0.677362 0.00325568 0.735643 0.722858 0.142569 0.676129 -0.28821 -0.895635 0.338782 -0.0694748 -0.353382 -0.932896 -0.745546 0.384253 0.544528 0.253821 -0.225274 0.940652 0.432369 -0.539483 0.722506 -0.768146 0.637499 0.059563 0.265987 0.496543 0.826254 -0.413529 -0.633369 0.654093 -0.789921 0.150783 -0.594381 -0.802724 0.272362 0.530521 0.771763 0.422461 -0.475298 -0.900528 0.434112 -0.0244237 -0.643185 0.397832 -0.65425 0.646563 0.762133 0.0333286 -0.713688 -0.382277 -0.586953 0.355889 0.641364 -0.679702 -0.150618 0.790861 -0.593172 0.0417863 -0.792392 -0.60858 -0.52058 -0.427858 0.738873 0.0231652 -0.956181 -0.291859 0.555025 -0.269229 -0.78706 0.37243 -0.38982 0.842221 0.53186 0.686951 -0.4952 0.793188 0.388889 -0.468635 0.347926 0.799933 0.488931 0.85912 -0.456336 0.231667 -0.111635 -0.0519926 -0.992388 -0.371248 -0.734184 -0.568462 0.994866 -0.0213705 0.0989197 -0.780571 0.23467 0.579343 -0.924212 -0.00074691 -0.381879 -0.143641 -0.235417 -0.961221 0.05838 -0.997102 -0.048776 -0.597887 -0.742865 0.301136 0.48034 0.251868 0.84014 0.991468 -0.0459681 0.121974 -0.512193 0.0855718 0.854597 0.0922089 0.334466 -0.937886 -0.252922 0.916565 -0.309739 -0.284028 0.14695 -0.947488 -0.0311053 -0.769616 -0.637749 -0.839883 -0.534356 0.0951876 -0.932034 -0.171669 -0.319126 -0.958158 -0.253361 -0.133195 -0.0276186 0.167713 -0.985449 -0.303524 -0.395476 0.866875 0.77044 -0.632161 0.0824286 0.0787055 0.980562 -0.179733 0.993695 0.0705021 0.0871812 -0.470124 0.774912 0.422487 -0.190083 0.734069 0.651929 0.935919 0.347049 0.0601062 -0.971437 0.219646 -0.0898033 -0.323539 -0.351726 0.878414 0.105665 0.584166 -0.804727 -0.872461 -0.279641 -0.400764 0.748784 0.465689 -0.471652 -0.965567 0.120032 0.23081 -0.645102 0.693626 -0.32051 -0.424714 0.181887 0.886868 0.360726 -0.566251 -0.741105 0.533546 -0.821677 0.200438 0.928541 -0.370768 -0.0184848 -0.183344 -0.881469 -0.435199 0.208035 -0.00914679 -0.978079 0.402834 -0.0504908 -0.913879 0.0580636 0.0107275 0.998255 -0.973731 0.150121 0.171208 0.160594 0.778282 0.607031 0.189994 0.868061 -0.458664 0.912972 0.31708 0.256793 -0.528776 0.646039 0.550481 0.347235 -0.0399383 -0.936927 -0.0698295 0.499203 -0.863666 -0.460059 0.45876 0.760187 -0.833438 0.503228 -0.22835 0.960755 0.242977 -0.133839 -0.134152 -0.776223 -0.616021 0.811138 0.0389047 -0.583559 0.888624 -0.284962 0.359365 -0.779488 0.538764 -0.319581 -0.109921 -0.9775 -0.180033 0.518057 -0.607699 0.60193 0.0774863 -0.323867 0.942924 0.0748559 -0.996196 0.0446014 0.516232 -0.398607 0.758035 -0.906902 -0.394739 0.147341 0.56835 0.134565 -0.811708 -0.209127 0.844056 0.493797 0.197161 -0.478532 -0.855649 0.327568 -0.85976 0.391806 -0.935777 0.0788006 -0.343673 0.0922696 0.848094 -0.521751 0.877439 0.420602 -0.230641 -0.63203 -0.734015 -0.248515 -0.898492 -0.426542 -0.1038 -0.030703 -0.558367 -0.829025 -0.978762 -0.201633 -0.037008 -0.843335 -0.462899 0.272965 -0.768561 -0.339195 0.542458 -0.574217 0.813477 -0.0923528 0.324156 0.425651 -0.844834 0.533979 -0.23835 -0.811207 0.868002 -0.243231 0.432911 0.344253 -0.897884 -0.274398 -0.664331 -0.152136 0.731791 -0.685442 0.711774 0.153451 0.528886 -0.358951 0.769047 -0.207152 0.802099 0.560112 -0.99897 -0.0224328 0.0394347 0.998139 0.0602025 0.00973058 0.0623826 0.0573904 0.996401 -0.711238 0.647299 0.274124 -0.0172398 0.0231805 0.999583 0.504017 0.442906 0.741486 -0.808509 -0.569144 0.149626 0.151012 -0.829527 -0.537662 0.124158 0.277831 0.952573 -0.928907 -0.276335 -0.246517 -0.401402 -0.898057 -0.179917 -0.43299 0.626174 -0.648402 0.948808 0.301809 -0.0931355 0.75912 0.0273709 0.650375 -0.353241 0.750137 0.55903 -0.081314 -0.83138 -0.549723 0.524135 -0.850064 -0.0517062 -0.184186 -0.557958 0.809172 0.325501 0.944471 -0.0449755 0.137572 -0.329799 -0.933973 0.36604 0.53449 0.761798 -0.778224 0.596349 -0.196811 0.764464 0.639329 -0.0827812 0.661614 -0.606887 0.440403 -0.815718 -0.564099 0.12805 -0.515335 0.673688 -0.529692 -0.519068 0.188537 0.83368 0.44067 0.875036 0.200303 0.857986 -0.452648 -0.242838 0.507811 0.260529 0.821129 -0.421259 -0.271326 -0.865403 0.46105 -0.679006 0.5713 -0.394187 0.58637 0.707663 -0.90658 0.059025 0.417886 0.148495 0.655741 0.740238 0.153325 -0.446764 0.881415 -0.885176 -0.462455 0.0509809 0.963389 0.0896609 0.252671 0.788201 -0.329583 0.519725 -0.0493631 -0.855148 0.516028 -0.545289 0.599818 -0.585558 0.436215 -0.646134 0.626281 -0.763971 -0.546957 -0.342325 0.81979 0.565516 -0.0901933 -0.725335 0.293445 0.622719 0.346844 -0.902 0.257088 0.0544805 0.059983 -0.996712 -0.744102 0.60368 -0.286151 0.309804 -0.56858 0.762061 -0.218128 0.835808 0.503831 0.313758 -0.605474 -0.731408 0.576257 -0.489373 0.654555 -0.886727 -0.33771 0.315702 0.430804 -0.704832 0.563577 0.612629 -0.62119 -0.48868 0.766178 0.588944 -0.257129 0.577248 -0.75942 0.30011 0.644109 0.379947 -0.663901 -0.941558 -0.196181 0.273828 -0.531478 0.679886 -0.505259 0.462125 -0.0647809 0.884446 0.0372886 -0.875535 0.481714 -0.424836 -0.810754 -0.402732 -0.643357 -0.354035 -0.678787 0.263683 0.957688 -0.115346 -0.429936 0.235849 -0.87151 0.307498 -0.808916 0.501099 0.912389 -0.34595 0.218779 0.681701 -0.240738 -0.69089 -0.591828 0.752333 0.289368 0.375553 -0.0951354 0.921905 0.924003 -0.360059 0.128748 -0.245184 0.852855 -0.461002 -0.933448 -0.286308 0.216106 0.90019 0.178504 0.397233 -0.584505 0.179725 -0.791235 0.30604 -0.248844 -0.918921 0.227386 -0.546621 0.805916 -0.244637 -0.409237 0.879021 -0.897389 -0.439209 -0.0422842 0.655483 0.66407 0.359655 0.822548 0.34211 -0.454285 -0.0549831 0.552161 0.831922 -0.527807 0.844193 0.0935845 0.0112781 -0.955318 -0.295365 -0.576596 0.0840214 -0.812697 -0.911924 -0.170488 -0.373268 0.455579 0.673532 0.582068 -0.72392 0.668158 -0.171768 -0.811673 0.154494 0.563311 0.502965 0.371298 -0.780489 -0.457908 0.788628 -0.410348 -0.944056 -0.250839 0.214098 0.603503 0.591279 0.534951 0.894618 0.355129 0.271186 -0.435538 0.895065 -0.0957342 0.038444 0.988921 0.143379 -0.517576 0.612359 -0.597605 0.464971 0.87833 0.111081 -0.481871 0.841049 0.24584 0.91944 -0.0645921 -0.38789 -0.806341 -0.331714 -0.489674 -0.170147 0.773123 0.611008 0.508887 0.494309 0.704765 -0.338672 0.8273 -0.448191 -0.253301 -0.25128 -0.934183 -0.377167 -0.913864 -0.150325 0.305517 0.664464 -0.682017 -0.483917 0.450014 -0.750541 -0.896522 -0.433054 0.0933383 0.70616 -0.0440556 -0.706681 -0.748653 0.644686 0.15459 -0.522286 -0.0352553 0.852041 0.226366 -0.679941 0.697452 0.454983 -0.544273 0.70481 0.33942 0.903946 0.260147 -0.626106 0.249179 -0.73