# vtk DataFile Version 4.0
Generated by libgran
ASCII
DATASET POLYDATA
POINTS 1686 FLOAT
-32.828 1.45165 6.80283 -31.612 0.686194 8.08982 -33.48 1.48885 5.14211 -32.3909 2.41577 6.21731 -34.2444 -0.975716 8.25265 -33.9541 2.01388 4.053 -31.794 -0.181447 12.8127 -31.7982 -1.85732 13.368 -32.221 0.506646 11.758 -32.2315 -0.620856 10.3686 -31.6651 1.02023 10.3978 -30.9497 1.06657 9.30021 -31.7037 -3.38826 15.9791 -30.7821 -3.1432 15.0526 -30.7329 -1.99799 15.0247 -29.9292 -0.501905 14.5891 -29.3159 -0.250062 15.3377 -29.1997 0.277971 13.9218 -33.2052 -4.05101 13.9231 -35.3443 -4.50419 15.2358 -34.208 -4.07952 14.6913 -34.5289 -4.31417 16.3944 -36.1087 -4.95162 14.2376 -33.9637 -4.65371 17.4111 -34.1693 -3.27761 17.8591 -34.4898 -2.82316 18.9295 -33.2108 -2.81349 19.266 -33.0212 -4.29017 21.9692 -34.0511 -3.32371 22.5968 -33.2668 -3.35911 20.919 -32.993 -5.53967 22.4231 -34.0721 -6.9475 22.0584 -33.8223 -3.33137 24.2649 -32.4771 -3.85867 19.6535 -33.4517 -7.59533 20.0684 -34.2252 -8.76393 19.7932 -32.1851 -7.98978 19.9787 -31.086 -8.13408 19.9511 -30.6157 -6.92541 21.2136 -31.3562 -6.29997 22.6641 -30.24 -5.50377 21.3508 -33.538 -9.89109 20.8101 -25.3395 -12.1523 23.3255 -26.2522 -11.6838 22.4796 -27.5129 -12.6179 22.3548 -24.9805 -11.4226 25.1421 -26.371 -11.4257 25.5521 -28.9395 -13.5557 22.4212 -30.729 -11.0923 19.803 -29.6826 -10.5233 19.0593 -30.252 -12.2314 20.2959 -31.7779 -12.0043 20.6276 -29.5291 -13.2366 21.3297 -32.6542 -11.0305 21.4657 -28.6729 -11.7656 18.1247 -28.5698 -13 16.9639 -27.6821 -15.161 17.6217 -27.2954 -14.9773 16.3626 -28.5147 -14.2187 16.414 -26.4576 -14.5428 18.6738 -25.4716 -14.4881 16.1041 -24.9133 -14.3188 19.1716 -24.8404 -15.4171 19.4397 -24.6374 -12.747 12.4641 -25.6332 -13.241 12.1594 -26.0023 -11.7646 12.8713 -23.3817 -12.7429 12.9014 -23.1953 -13.4552 11.4181 -23.3352 -12.5194 14.7518 -24.1134 -13.2685 15.9696 -35.9774 15.5037 3.27944 -36.0686 14.947 1.37699 -36.0269 13.9566 1.24545 -35.0765 16.0341 4.48424 -34.5988 15.9071 5.46393 -33.6457 16.202 5.53295 -34.0745 15.7142 6.29333 -39.1807 14.4015 0.585644 -39.9286 15.0902 -0.270227 -38.1315 15.7138 0.181628 -38.5454 14.0609 1.43193 -39.445 12.6417 0.831148 -40.2214 11.6084 1.22495 -40.999 10.5276 1.8927 -45.1805 11.1903 0.947574 -45.3226 10.2787 0.221899 -45.6975 12.5183 0.0268285 -44.6466 12.7078 2.134 -41.9313 10.0217 1.74885 -40.9412 8.9565 1.05123 -41.1814 9.18227 -0.233321 -40.8739 8.20508 -0.740211 -40.9005 7.48092 0.666218 -40.9795 10.6188 -1.22978 -42.4903 9.69556 -0.881197 -40.9673 10.9558 -2.52587 -41.023 6.03076 0.254998 -41.452 6.07479 1.81712 -41.7051 7.35614 -7.10149 -40.842 7.02129 -8.05588 -41.9152 5.61146 -7.77755 -42.1181 8.85193 -8.82791 -42.8565 8.29666 -9.36649 -43.1639 9.14562 -7.69685 -43.9987 7.92766 -10.0703 -43.9023 8.59036 -8.23544 -42.9448 4.15307 -7.50056 -42.8719 9.5272 -5.58012 -43.5281 9.49664 -6.74837 -43.0389 9.55535 -4.3647 -43.4711 9.42143 -3.33527 -44.2899 9.13954 -2.62426 -43.4761 8.97725 -1.95451 -45.2859 10.5199 -2.96843 -43.8371 10.3115 -0.904869 -40.4098 3.48448 -9.87152 -39.1137 3.58161 -10.9829 -39.7612 2.41363 -9.53886 -40.6723 4.7465 -9.54504 -40.9744 5.97192 -10.0047 -42.623 5.94549 -9.95263 -40.3388 0.899212 -9.04691 -43.7088 5.51769 -10.4897 -42.9686 0.695048 -6.35431 -42.2642 1.8309 -6.56977 -43.3856 2.57906 -6.82508 -41.0245 2.86564 -6.97876 -25.8181 13.054 19.7159 -26.3012 14.0105 20.5031 -24.7632 14.1863 20.0915 -27.1312 12.3157 18.616 -28.9761 12.7736 19.8504 -29.5589 10.3373 18.0879 -29.7296 11.8973 17.0696 -30.2046 9.23951 17.9506 -29.6565 8.48873 18.5094 -28.9634 11.7979 16.4347 -31.8421 8.78551 18.1901 -30.8387 9.25575 16.6245 -32.3394 8.54015 19.7836 -26.7034 4.08961 13.4167 -26.5305 2.9723 13.2958 -27.0349 5.28553 13.8941 -28.5764 4.58541 13.7573 -28.0232 2.25438 13.9826 -27.7158 1.89328 12.5572 -28.5113 1.57603 15.3099 -27.3341 1.11042 11.4196 -26.9611 1.30666 10.4317 -29.7674 8.83347 15.6317 -30.9387 8.80401 15.003 -28.4898 8.94705 15.079 -30.9295 7.28408 14.0702 -32.0329 8.7001 13.8747 -31.4629 6.0461 14.0009 -30.0527 5.52818 13.8675 -33.3288 6.6245 5.69579 -34.4046 6.20537 5.03632 -32.7901 7.45497 6.34291 -32.4541 5.79534 6.90273 -36.1659 5.70026 5.65763 -34.2769 4.08633 6.80694 -37.3063 6.25905 5.17584 -37.0995 6.23396 3.67544 -40.3335 5.09412 3.8829 -38.7801 4.58514 3.98539 -41.4931 5.57589 3.44922 -41.8262 4.97545 1.74533 -37.652 5.92169 2.85197 -38.2225 3.89595 5.25674 -32.5495 5.59896 11.745 -31.8729 7.88906 10.7724 -33.1549 8.21578 11.9194 -33.3391 8.57147 12.9516 -34.132 7.55443 13.3897 -32.3539 10.0993 13.1336 -34.5841 6.2628 14.0343 -34.7293 3.39915 9.36517 -34.3055 3.22117 10.6128 -33.7897 3.56667 7.62323 -33.6759 3.45148 11.8387 -26.1528 23.317 28.3596 -26.5622 22.0308 28.8537 -26.1393 22.833 29.9238 -25.924 23.5108 27.0642 -26.3052 24.9651 27.7145 -27.0673 26.1442 27.822 -23.3541 23.5449 28.2379 -22.9924 23.7434 30.5466 -23.8208 24.3385 31.7431 -22.7385 23.5348 29.2582 -22.3148 23.2394 28.2751 -24.0943 25.3711 28.8439 -23.7729 24.4549 32.9739 -25.7765 27.414 33.2324 -25.4126 28.3738 34.0805 -26.4561 29.232 33.3862 -26.1187 26.7837 32.3871 -25.1639 26.0936 32.0927 -23.8226 28.9293 35.0935 -25.8946 25.2314 31.4226 -21.1363 25.8805 35.0019 -21.2619 24.5736 35.2125 -21.0231 26.9763 34.9861 -20.0143 27.6315 35.799 -21.072 28.4372 35.3728 -18.4689 27.3433 36.5312 -18.6361 28.577 36.1374 -22.0883 29.3558 35.2321 -20.1594 29.5371 34.8398 -28.1355 23.6579 33.1923 -28.6125 25.8899 33.6239 -30.6479 24.7545 35.7088 -30.5352 23.6504 34.8196 -30.1558 23.0306 33.0617 -26.8302 23.4161 33.0596 -31.9139 20.8355 31.1118 -32.4918 21.6471 32.5987 -30.6591 20.6253 30.7215 -29.8048 20.3256 30.2967 -32.5856 22.6544 33.889 -33.4802 22.2322 33.7427 -35.2653 22.7136 33.5947 -36.0364 22.6602 32.3054 -35.6424 21.805 31.8047 -37.0412 24.0596 31.5557 -37.5015 23.8238 33.1975 -37.9725 24.5465 32.225 -36.6806 21.8543 33.6427 -37.5306 24.7863 34.8127 -37.7331 25.8564 32.9418 -41.4295 25.3379 36.2313 -40.8676 26.449 35.7648 -39.923 25.6874 35.2472 -38.529 25.6618 34.939 -41.4174 25.7001 34.0601 -37.4164 25.8805 34.5611 -36.1651 8.95218 22.6831 -36.2499 7.92296 23.5199 -37.621 9.14233 23.4591 -34.8216 8.76736 21.7446 -35.931 10.0979 21.8006 -33.507 7.49429 21.385 -32.5406 6.77002 20.5781 -33.0785 6.06005 19.8597 -31.4224 6.29964 19.7768 -33.6421 5.04076 19.2183 -33.6462 4.57557 20.5768 -29.5837 4.69229 19.1604 -29.2096 5.70819 18.8277 -40.9146 9.84506 22.5349 -41.4655 9.13674 23.516 -42.8908 8.77519 22.8216 -41.1324 11.2991 22.8098 -42.4567 11.05 22.2203 -39.4068 7.3658 20.7304 -39.5172 8.94128 21.4263 -38.7903 6.98922 21.5906 -38.1622 6.57482 22.2493 -36.524 6.89325 21.4313 -37.2639 5.90309 22.7197 -30.1767 15.9444 22.5654 -31.2849 16.0108 23.2974 -30.0971 15.6831 24.4436 -29.1591 15.4142 21.8423 -30.0937 15.1451 20.8485 -32.2582 16.8049 23.5719 -31.7648 17.7753 24.9543 -30.6758 18.433 26.4148 -33.7304 10.7219 20.235 -32.7147 10.4281 21.0043 -32.0278 11.462 20.1299 -34.6992 11.6193 20.0779 -35.5995 10.7299 20.8677 -30.8115 11.5874 20.851 -30.6581 12.5752 20.8267 -29.5504 19.7953 26.835 -29.583 18.2335 26.5691 -30.3254 19.8892 29.0282 -31.7319 19.9205 27.9582 -29.3215 16.6969 26.6712 -28.6793 15.5238 27.4992 -31.478 20.2065 25.6021 -32.4371 19.5769 26.6346 -31.3468 21.5228 25.7374 -32.8708 22.2561 25.3982 -34.4853 22.0755 25.4975 -34.4438 23.4095 23.79 -5.94076 24.8909 38.5956 -4.95061 24.8433 38.7272 -7.19415 24.4406 38.6401 -5.42089 24.1294 38.2084 -7.99272 25.5835 39.6793 -8.78568 24.1245 39.1013 -8.83466 25.2118 39.2882 -8.85013 26.0911 39.7642 -4.70068 23.1269 38.4636 -3.6223 23.783 37.833 -4.29262 21.4377 38.5541 -9.64826 23.2231 38.0541 -5.60261 19.698 39.9056 -5.68176 20.5943 38.6586 -6.46673 18.5697 40.1669 -6.93573 17.6039 40.4884 -3.76781 20.7979 39.5048 -0.990076 25.0823 38.827 -2.09041 25.206 38.0907 -2.30055 23.9863 38.0219 0.119804 26.5878 38.6698 -2.04383 26.8334 37.6865 -2.45374 22.7423 37.8915 -2.17297 28.6177 37.9885 0.58275 30.9471 38.3193 1.36907 29.7374 39.1065 -2.20051 30.2593 37.6121 2.37588 29.2815 38.3386 -3.0298 29.6592 38.9782 -20.9341 32.0075 42.4512 -19.7078 31.5794 42.1669 -21.0055 32.0919 44.1499 -22.1712 31.4223 42.7795 -18.4192 30.591 44.6304 -18.8196 31.0088 46.1685 -17.8415 29.9032 43.1482 -15.4932 28.9998 41.2989 -16.2838 28.8522 42.3577 -14.5363 27.6548 41.1841 -17.3363 28.7249 42.5474 -17.1787 27.6208 43.545 -16.2592 27.1382 42.9874 -13.3603 27.6873 41.9863 -14.1561 27.2041 42.6461 -17.0197 26.8486 44.9288 -11.2698 24.2543 42.8 -12.5111 24.573 43.162 -11.1336 24.7044 41.9175 -10.3445 24.3937 42.4474 -12.8188 25.5611 44.1903 -13.2115 24.5462 45.022 -13.4945 26.9859 43.9669 -10.3861 25.8278 41.5587 -15.0884 26.8351 43.3907 -10.1489 27.8093 39.3892 -9.53546 26.6622 39.0789 -10.7415 27.4127 40.7731 -10.8651 28.3946 40.9166 -11.7239 27.8538 39.4222 -10.6877 27.7938 41.6961 -20.0864 35.1923 39.6287 -20.2405 36.0411 37.9292 -19.1443 35.704 40.4159 -19.1159 37.2953 40.159 -18.7827 37.0766 41.0762 -19.3601 37.8803 40.9325 -19.4256 38.9898 40.3825 -20.086 35.6403 36.9045 -20.9399 37.0296 37.3538 -18.3005 38.3385 41.7306 -19.5039 41.0968 44.2325 -21.2065 40.6978 43.6726 -21.3801 41.2929 44.6595 -21.4362 39.8697 42.3412 -22.7742 39.9112 43.5451 -20.0589 39.6978 41.1431 -18.366 39.448 41.1807 -21.4411 43.1679 45.9536 -20.3798 43.7763 44.6176 -20.8242 42.7928 47.0702 -21.9843 41.9755 45.9004 -20.3369 43.8351 43.3533 -19.2003 44.6679 44.1282 -20.8597 40.4025 48.2702 -21.6594 39.4595 51.3913 -21.091 40.5833 50.9645 -22.2102 41.3047 51.6195 -20.1535 40.3779 49.7382 -18.6865 41.3844 49.548 -23.1878 41.9693 51.4023 -16.6996 28.49 38.9862 -15.987 28.1859 37.9057 -16.2044 29.5466 37.6549 -15.6878 26.6507 37.9815 -17.3246 29.7588 36.6615 -14.636 26.2177 39.1876 -13.193 27.0962 39.2996 -18.7192 29.5862 35.6168 -19.019 30.6635 34.3981 -18.2919 29.9777 34.3628 -18.126 30.9007 34.0155 -19.3335 31.7958 36.0541 -18.9297 31.2959 37.1167 -21.8755 30.2192 37.1943 -22.3847 31.3498 36.0876 -22.2263 33.8476 41.5135 -23.8097 33.1229 41.6476 -21.5717 32.9812 40.746 -21.9818 32.8136 39
[...]
POINT_DATA 1686
FIELD FieldData 1
normals 3 1686 double
-0.402964 0.461699 -0.790224 0.812995 -0.303753 0.496763 -0.249071 -0.424499 -0.870497 0.840037 0.502428 0.204702 -0.980126 -0.142794 -0.137709 -0.224949 0.949529 -0.218613 -0.418138 0.904983 -0.0785222 -0.422333 -0.77089 0.476827 -0.00882304 -0.216891 -0.976156 -0.00171878 -0.91061 -0.413263 0.564754 0.730476 -0.384003 0.150636 -0.684132 -0.713633 -0.380255 -0.856366 0.349348 0.541416 -0.611303 -0.577216 0.59056 0.533905 -0.605132 0.213209 0.96218 0.169561 -0.400092 0.710338 -0.579091 0.516261 -0.182304 -0.836803 -0.822569 0.568505 -0.0135472 -0.956049 0.172344 -0.237209 0.180249 0.597013 -0.78172 -0.14065 0.362362 0.921364 0.191667 -0.619775 -0.761014 0.705857 -0.701905 0.0953713 0.500296 0.674196 0.543289 -0.82087 -0.219746 0.527147 0.458217 -0.210076 0.863658 0.759764 -0.595527 0.260974 -0.270067 0.370936 0.888521 0.514232 0.335541 -0.789289 -0.731514 -0.653971 0.192899 -0.347579 -0.753854 -0.557578 0.498805 -0.378594 0.779654 0.275428 -0.835109 -0.476164 0.802821 0.20987 0.558062 0.0293423 -0.958726 0.282813 0.4638 -0.604313 -0.647839 0.635282 0.460014 0.620326 -0.164966 0.748654 0.642109 -0.575596 -0.123218 0.808397 0.540581 0.672982 -0.504844 0.657818 -0.168439 0.7341 -0.336443 0.926414 -0.169005 -0.576244 -0.457989 -0.676897 -0.684429 -0.476084 0.552178 0.797846 0.584556 0.147431 -0.592628 0.581427 0.557436 -0.742189 -0.461718 -0.485769 -0.398547 -0.914842 0.0649962 0.647876 -0.345844 -0.678711 0.875534 -0.224293 0.427939 -0.650367 0.00283442 0.759615 -0.152586 -0.780845 0.605804 -0.225939 0.970974 0.078489 0.361802 -0.89645 -0.255884 -0.258645 -0.33798 -0.904915 0.518781 -0.0617097 0.852677 0.905507 0.122018 -0.406409 -0.313746 0.880635 -0.355028 0.705717 0.679861 0.199382 0.918347 0.367107 0.147887 0.838574 -0.455771 0.298438 0.765619 0.642578 0.0303408 0.870772 -0.11594 -0.477822 -0.12501 -0.609945 -0.782521 -0.494139 0.866509 -0.070631 0.384926 0.120096 0.915101 0.571323 -0.592182 -0.568252 -0.338396 0.103396 0.935306 -0.439815 -0.852524 0.282427 -0.00556732 0.169581 0.985501 -0.0967785 -0.387107 -0.916942 -0.138439 0.603308 -0.785401 0.906477 0.360839 0.219308 -0.428792 -0.487813 0.760378 0.524265 -0.192994 0.829397 0.953057 0.29482 0.0690168 -0.197002 -0.810338 0.551853 -0.944866 -0.121662 -0.304017 0.852164 0.501957 0.147837 0.832279 0.469705 0.294431 -0.0673166 -0.949536 -0.306349 -0.709068 -0.0836886 0.700156 -0.0684778 -0.997126 -0.0324074 -0.504374 0.862749 -0.0356617 -0.646513 -0.0488444 -0.761337 -0.0126425 0.465259 -0.885084 -0.456692 0.885419 -0.086401 0.863888 -0.4912 0.111445 -0.126241 0.573994 0.80907 -0.366466 0.799765 -0.475478 -0.0589137 -0.177431 -0.982368 -0.0855171 -0.901587 0.424061 0.568381 0.636804 -0.520984 -0.942448 -0.286478 -0.172399 -0.556153 -0.299855 -0.775101 -0.0370238 -0.548577 -0.83528 -0.465982 -0.504545 0.726839 -0.223136 0.88205 0.414968 0.639996 0.547203 -0.53942 -0.433252 -0.862627 -0.261089 -0.242011 0.687191 0.684981 -0.98039 0.131926 0.146396 -0.803853 -0.393496 0.446074 -0.161882 -0.500923 -0.850218 -0.0654702 0.161768 0.984655 -0.596273 -0.595761 0.538077 0.216649 -0.713951 0.665836 -0.439639 -0.744513 -0.502412 -0.383733 0.742097 0.549583 -0.0483939 -0.876014 0.479852 -0.770443 0.594124 0.231158 0.0433393 0.431834 0.900911 -0.225575 0.786206 -0.575323 -0.404366 0.902424 0.148727 -0.803683 0.42586 0.415615 0.492353 0.522987 -0.695753 -0.155157 -0.644991 0.748273 0.541201 0.836155 -0.0891375 -0.843302 0.389263 -0.370562 -0.805327 -0.415692 0.422669 -0.422369 -0.869427 -0.256321 -0.280484 -0.0120993 -0.959783 -0.261644 0.905767 -0.333359 0.966001 0.230087 0.117905 -0.155396 0.978249 -0.137407 0.273725 0.80465 -0.52689 -0.400954 -0.48938 -0.774431 -0.884098 0.467127 0.0127632 0.653955 0.642914 -0.398753 -0.912182 -0.248988 -0.325467 -0.729956 -0.00867409 -0.683439 0.263717 -0.933038 0.244731 0.0930442 0.62694 -0.773492 -0.909366 -0.164788 -0.381966 -0.36123 -0.91557 0.176759 -0.673171 0.726384 -0.138588 -0.728106 -0.289214 0.621464 0.275253 0.181028 -0.944174 0.230816 0.0438578 0.972009 -0.889096 0.421773 0.177807 -0.716236 -0.695533 0.0569208 0.557607 0.774151 0.299608 -0.983876 0.0740258 0.162812 -0.776432 -0.0223897 0.629803 -0.46899 -0.383496 -0.7956 0.288347 -0.65596 0.697547 0.850615 -0.399357 -0.342007 -0.477585 0.595598 -0.645891 0.796022 -0.603312 -0.0486142 -0.375217 -0.632767 -0.677361 0.481566 0.716899 -0.504133 0.384357 -0.887164 -0.255361 -0.719006 0.528858 -0.450932 -0.917772 -0.350816 0.18607 0.492463 -0.86874 0.052639 0.262282 -0.077563 0.961869 -0.813547 -0.496686 0.302397 0.27642 0.908031 -0.314758 0.612413 -0.751594 0.245066 -0.947747 -0.00843127 0.318912 0.946263 -0.31962 -0.0492919 -0.192696 0.567222 -0.800705 0.399498 -0.592308 -0.699695 -0.734866 0.487422 0.471584 0.818516 -0.0215532 0.574079 -0.424815 -0.00564739 -0.905263 0.0917104 -0.594797 -0.798627 0.951978 -0.280032 0.123774 -0.260901 -0.667643 0.697269 0.30777 -0.720283 0.621667 -0.510508 0.628512 0.586818 -0.771469 -0.301794 0.560139 0.587217 0.657487 0.472109 -0.205668 -0.359558 0.910175 0.397994 0.870309 -0.290108 -0.246405 -0.932072 -0.265568 0.480545 -0.0325202 -0.876367 0.904335 -0.210499 0.371307 0.459087 0.200041 -0.865577 -0.274722 0.440805 0.854529 -0.363874 0.670694 -0.646347 -0.773268 -0.615519 -0.152292 -0.350385 0.18666 0.917817 0.592678 -0.476877 -0.649093 0.211522 0.977372 0.00127738 -0.973657 0.201768 0.10622 0.739172 0.622946 0.256051 0.130378 -0.841561 -0.524191 -0.698046 -0.246488 0.672292 0.123515 0.632971 -0.764259 0.300208 -0.928437 -0.218814 -0.324313 -0.476357 -0.817255 0.74593 0.362907 0.558468 0.446124 -0.85276 -0.271611 0.810082 0.10702 0.576467 -0.233483 0.96519 -0.117872 -0.788275 0.222414 -0.57372 0.166532 -0.467638 -0.868091 0.779945 0.448471 0.436532 -0.897249 -0.394641 0.197996 0.100267 0.531317 -0.841219 -0.0254074 -0.775622 -0.630686 0.0129465 0.564452 0.825364 0.995797 0.0907502 -0.0123979 -0.0619344 0.896505 -0.438683 0.549593 -0.378915 0.744561 0.382465 0.854787 0.3508 -0.954315 0.0220157 0.297989 0.974544 0.203394 -0.0943174 0.520853 -0.482141 -0.704452 0.846235 -0.140889 -0.513845 0.137887 -0.985036 0.103397 -0.0250904 -0.119051 -0.992571 0.404438 -0.500758 -0.765292 0.784438 0.240307 0.571761 0.423607 -0.755006 -0.500523 -0.154276 0.0565542 0.986408 0.831263 0.544838 0.110244 0.0229673 -0.844533 -0.535011 0.0604937 0.95079 0.303874 -0.834124 0.528586 0.157587 -0.950982 -0.0472302 -0.305619 -0.179938 0.00609841 0.983659 0.21401 -0.849088 0.482958 -0.585554 -0.451419 0.67331 0.125221 0.215668 0.968404 -0.345717 0.93833 -0.00401898 -0.464251 -0.81204 0.35364 -0.154294 0.746838 0.646859 0.585139 0.371551 0.720807 -0.9566 -0.246595 0.155266 -0.394624 0.864506 -0.311288 0.549945 0.102998 -0.828826 0.844068 -0.128638 0.520578 -0.361368 -0.825612 0.433334 0.268496 0.347377 -0.898465 0.787453 0.458404 -0.412048 0.702664 -0.57081 0.424781 -0.668497 0.64856 0.363981 0.556027 -0.643225 -0.526399 -0.553405 0.687334 -0.470441 0.758617 -0.629839 0.166741 0.207765 -0.094435 -0.97361 -0.745639 -0.615534 0.255226 0.910477 -0.375948 0.172324 0.181959 -0.403754 -0.89659 0.1779 -0.868943 0.461833 -0.202464 0.415395 -0.886823 0.576522 0.600501 0.554094 0.218502 -0.0696761 0.973346 -0.769467 -0.638638 0.00783143 -0.655806 0.277088 -0.70224 -0.938385 -0.120248 0.323995 -0.385873 -0.128917 -0.9135 0.972551 0.197582 0.122908 0.196 -0.106283 0.974827 -0.355996 -0.574167 0.737292 0.984025 0.159769 -0.0785415 0.654236 0.158661 -0.739461 -0.085727 -0.831497 0.548875 0.141611 -0.123478 -0.982191 -0.966508 -0.0571054 -0.250201 0.22123 -0.384818 0.896087 0.875992 -0.406799 0.259138 -0.0585532 -0.675868 -0.734693 -0.0068008 0.851227 0.524754 0.500215 0.119175 0.857661 0.588722 0.538508 0.602839 -0.984266 -0.0474533 0.170202 0.0313834 -0.341341 0.939416 0.718329 0.692651 0.0651021 0.0154142 0.94477 -0.327372 -0.884918 0.0553789 0.462444 0.4979 -0.567331 0.65592 0.651304 0.420534 0.631628 0.536661 0.823781 -0.1827 0.504121 -0.737986 -0.448596 0.54355 -0.408108 0.733486 -0.862958 -0.376843 -0.336591 -0.242629 -0.798631 0.550744 0.884795 -0.374531 0.277245 0.801347 0.596454 -0.04567 -0.157757 -0.0332189 0.986919 -0.670138 0.719813 0.181063 -0.853878 0.0134889 -0.520298 -0.760541 -0.194047 0.619615 -0.4458 -0.749014 -0.490144 -0.470281 -0.713929 -0.518788 0.519877 -0.76147 -0.387158 -0.7831 0.263651 0.563242 0.990158 -0.0475417 0.131629 -0.0154774 0.879319 0.475982 -0.80843 -0.579689 -0.101991 -0.85741 0.507586 0.0848772 -0.841933 -0.371733 -0.391104 -0.269949 -0.954919 0.12352 0.808433 -0.298809 -0.507099 0.678004 -0.734317 -0.032999 -0.0541489 -0.321793 -0.94526 0.121643 -0.960579 0.249982 0.042489 -0.0643176 -0.997025 -0.985761 -0.167771 0.0113598 0.516757 -0.798009 0.31007 -0.153196 0.0945774 0.98366 0.797169 0.59381 0.109138 -0.303162 0.717506 -0.627118 -0.51331 -0.502126 -0.695976 0.312711 0.911756 -0.266295 0.349742 0.909931 0.222951 0.360121 -0.741878 0.565623 -0.478882 0.874314 0.0790375 -0.365301 0.307257 -0.87872 0.42102 -0.902421 -0.0915307 -0.451344 -0.767354 0.455475 0.585792 0.446586 -0.676321 -0.37795 0.167211 0.910601 -0.5497 -0.0628852 0.832992 0.676664 -0.490968 0.548704 0.478342 0.147259 0.865739 -0.687344 -0.522338 -0.504699 0.75244 -0.197787 -0.628263 0.352037 0.219925 0.909782 -0.17476 -0.490082 -0.853978 0.418006 -0.667849 -0.615832 -0.372596 -0.815445 0.442968 0.538915 -0.67714 0.50105 -0.679936 0.688162 -0.25322 -0.522342 -0.415988 0.744387 0.39713 -0.898551 0.186801 0.637001 0.709596 0.301171 -0.158721 0.226469 0.960999 0.681396 -0.356238 0.63937 0.789102 -0.310706 0.529886 -0.452195 0.00805355 0.891883 0.925319 0.139418 -0.35263 0.136216 0.450124 -0.882515 0.144497 0.980059 0.136403 -0.248176 -0.0349089 0.968086 -0.820236 0.444707 -0.359791 -0.177875 0.984034 -0.00615459 -0.773666 -0.595476 -0.216449 -0.770059 0.204172 0.604419 -0.156604 -0.942849 0.294127 0.177478 -0.600779 0.779465 0.0538394 0.381119 0.922957 -0.804953 -0.159669 -0.571451 -0.123638 0.981898 0.143493 0.336402 -0.275815 0.900422 0.182286 0.572986 -0.799036 0.605749 0.787566 -0.11317 -0.577409 0.803707 -0.143714 -0.244189 0.584981 0.773414 0.333219 -0.218725 0.917128 0.267721 0.890774 0.367216 -0.0277527 -0.973807 -0.225678 -0.881663 0.415503 0.223668 0.726413 0.676885 -0.11896 0.99668 -0.074368 0.0331341 -0.70594 -0.473456 -0.526772 -0.879462 0.121703 0.460147 0.47626 -0.354596 -0.804635 -0.861705 -0.313099 0.399291 0.901032 0.182728 -0.393385 0.791912 -0.432613 0.430953 -0.267988 -0.631489 0.727602 0.793295 -0.0230946 -0.6084 0.884847 0.256392 0.388984 -0.275223 -0.560906 -0.780793 -0.750404 0.0818402 -0.655893 0.386256 0.914684 0.118992 0.714516 -0.42835 0.553157 0.360997 -0.925416 0.115268 0.929311 0.198392 -0.311483 -0.189852 0.919765 0.343496 0.00825967 -0.403739 -0.914837 -0.484403 0.334471 -0.808383 -0.78774 -0.255115 -0.560698 0.686334 0.51748 -0.511039 0.0263086 -0.821602 -0.569455 -0.191135 0.539139 -0.820242 0.272855 -0.713563 0.645273 -0.929029 -0.32696 -0.173212 0.778913 0.280607 0.560851 0.664112 0.597884 -0.448878 -0.465652 0.154361 -0.871402 0.165927 0.922925 -0.347387 0.892945 0.237209 -0.382598 0.727018 -0.685715 -0.0352112 0.840667 0.203478 0.501871 -0.43687 -0.703384 0.56071 -0.756144 0.574681 -0.31303 0.246893 0.555988 -0.793676 0.952568 -0.0327084 -0.302563 -0.630883 -0.757376 -0.168429 -0.298029 -0.8337 -0.464891 -0.111982 0.666084 -0.737423 -0.406598 -0.874418 0.264709 -0.986517 -0.156035 0.0493737 -0.776329 0.625391 -0.0787403 -0.448982 -0.313966 -0.836565 -0.0340188 -0.873763 0.485161 -0.42941 -0.169589 0.887044 0.339874 -0.940175 -0.0235935 0.620928 0.129986 -0.773015 -0.0150084 -0.64173 -0.766784 -0.635936 -0.771717 0.00622992 -0.608284 0.793636 0.0115297 -0.665018 -0.387678 0.638324 0.00451355 0.976225 0.216711 0.541565 0.324817 0.775371 0.270054 -0.636178 0.722737 -0.271511 -0.960995 -0.052634 0.152358 -0.985835 -0.0701114 0.94179 0.328577 -0.0712002 0.960617 -0.217434 -0.173023 0.319995 0.944107 -0.0791585 0.391788 0.112259 0.913181 0.554134 0.00798462 -0.832389 0.817394 -0.0865956 0.569534 -0.163362 0.0801589 -0.983304 -0.320352 0.342037 0.883394 0.642447 0.760298 0.0959567 -0.389228 -0.519153 0.760909 -0.896024 0.443979 -0.00494781 0.992018 -0.107656 -0.0656584 -0.0211789 0.520424 0.853645 0.183407 0.982996 -0.00900904 -0.426347 -0.821692 -0.37822 0.204586 0.462573 -0.862654 -0.264089 -0.149739 0.952804 0.00460558 -0.151591 -0.988433 -0.899414 -0.277591 -0.337635 0.162452 0.224394 -0.960862 -0.385098 0.919205 -0.0822297 -0.186325 0.538764 0.821594 0.935936 -0.347679 -0.056067 0.142313 -0.382927 0.912751 -0.114613 0.655601 -0.746359 -0.824696 -0.410948 -0.388586 0.953212 0.121113 -0.276983 -0.0499142 -0.00620082 0.998734 -0.226643 0.857103 0.46261 0.0652678 -0.172326 0.982875 0.0666782 -0.734547 0.675274 0.735555 0.000914069 -0.677464 -0.0927089 0.636559 -0.765636 -0.636963 -0.55458 -0.535462 0.879766 0.125516 0.458538 0.44847 -0.241305 -0.860609 -0.497894 -0.180339 0.84828 0.0196887 -0.0689924 0.997423 0.50404 -0.177569 -0.84523 0.306143 -0.946271 -0.104157 0.92421 0.203932 -0.322873 0.461467 0.646846 0.607156 0.833956 -0.186764 -0.519266 0.844758 0.488719 0.218031 0.0108027 0.675483 0.737297 0.768828 -0.525948 -0.363705 -0.96478 -0.259926 0.0404632 0.0530602 -0.997143 0.0537663 0.0151277 0.238536 -0.971016 -0.928662 0.311301 -0.201688 -0.709515 -0.577073 -0.404444 0.22986 0.332853 0.914534 -0.00893013 -0.992672 0.120512 0.882131 0.470227 -0.0270418 -0.388838 0.883135 -0.262444 0.889149 0.453082 0.0642667 0.293983 -0.774645 -0.55991 0.687912 0.68738 -0.232994 0.774351 -0.0924858 0.625961 0.837311 0.0211464 0.546318 -0.348377 -0.860611 0.371461 -0.270558 -0.307962 -0.912117 -0.577605 0.488417 0.654081 0.366999 -0.272878 0.889297 0.456623 -0.608309 0.649196 -0.651986 0.73261 0.19544 0.464964 0.427311 0.77538 -0.382779 -0.594807 0.706884 -0.849022 0.275798 -0.450664 -0.658518 0.359352 0.661227 0.732975 0.322992 -0.598686 -0.82494 0.551715 0.122819 -0.67828 0.503632 -0.535062 0.7484 0.658759 -0.0770282 -0.850832 -0.259265 -0.457019 0.340409 0.577477 -0.742053 -0.132414 0.821578 -0.554506 -0.21098 -0.78688 -0.57992 -0.444517 -0.327144 0.833895 -0.200044 -0.944371 -0.261046 0.34548 -0.363481 -0.865174 0.445066 -0.448672 0.77499 0.545523 0.580891 -0.604128 0.750382 0.240687 -0.615627 0.562808 0.726788 0.393733 0.813113 -0.576879 0.0778315 -0.24505 0.0476248 -0.96834 -0.573503 -0.671309 -0.469509 0.981383 -0.178822 -0.0700728 -0.658794 0.283197 0.696986 -0.956806 0.151078 -0.248389 -0.298013 -0.132119 -0.945375 -0.114937 -0.993313 -0.0109296 -0.650186 -0.623224 0.434569 0.643832 0.198648 0.738932 0.977731 -0.207476 -0.0315695 -0.345241 0.19762 0.917472 -0.00883272 0.288869 -0.957328 -0.133705 0.939795 -0.314496 -0.408655 0.174074 -0.895935 -0.27495 -0.765723 -0.581439 -0.886644 -0.384539 0.25689 -0.987917 -0.00381219 -0.154935 -0.99523 -0.0898148 0.0380743 -0.16621 0.145339 -0.975321 -0.212968 -0.316299 0.924445 0.661931 -0.749488 -0.0106835 0.203324 0.94893 -0.241227 0.993396 -0.0916432 -0.069033 -0.268499 0.855454 0.442839 -0.248271 0.707758 0.661393 0.910305 0.405481 0.0832402 -0.98197 0.158214 -0.103456 -0.298122 -0.38824 0.872005 0.0767894 0.553099 -0.829569 -0.851995 -0.347703 -0.391417 0.723242 0.488381 -0.488267 -0.959577 0.105106 0.261084 -0.84567 0.451408 -0.284732 -0.30942 0.254962 0.916108 0.388779 -0.581742 -0.714442 0.743745 -0.634203 0.211259 0.980901 -0.143838 -0.130933 -0.0901782 -0.909082 -0.406741 0.119297 -0.00275391 -0.992855 0.301896 0.075923 -0.950313 0.0942303 0.0632698 0.993538 -0.971367 0.127026 0.200775 0.159806 0.812364 0.560826 0.144563 0.852014 -0.503163 0.912605 0.342783 0.222828 -0.526682 0.695572 0.488657 0.345006 -0.128099 -0.929818 -0.0712794 0.416105 -0.906518 -0.453803 0.531012 0.715604 -0.749765 0.59079 -0.298027 0.959643 0.231897 -0.159089 -0.206767 -0.768286 -0.605792 0.83855 -0.0887903 -0.537541 0.820713 -0.392697 0.414994 -0.689104 0.625691 -0.365576 -0.192417 -0.955462 -0.223759 0.388624 -0.674071 0.628172 -0.0178366 -0.303906 0.952535 -0.0258103 -0.999389 0.0235775 0.40409 -0.461636 0.789685 -0.955487 -0.289104 0.058842 0.649152 0.080915 -0.756343 -0.153905 0.854437 0.496237 0.212998 -0.476399 -0.853039 0.182315 -0.904463 0.385626 -0.884062 0.205519 -0.419757 0.245363 0.83819 -0.487067 0.940959 0.305308 -0.146232 -0.689075 -0.650534 -0.319345 -0.929565 -0.319983 -0.183085 -0.0286912 -0.531841 -0.846358 -0.989333 -0.0890795 -0.115265 -0.909831 -0.36789 0.192 -0.839843 -0.269358 0.471285 -0.473414 0.875289 -0.0987329 0.432026 0.415349 -0.800524 0.564885 -0.268748 -0.780179 0.800846 -0.353555 0.483369 0.271538 -0.932653 -0.237539 -0.739578 -0.0717328 0.669237 -0.598988 0.793239 0.109483 0.401078 -0.438477 0.804285 -0.183386 0.817812 0.545484 -0.99078 0.0981572 -0.0933777 0.988768 -0.0717873 0.13109 -0.241253 0.206185 0.948306 -0.977884 0.208697 -0.0137432 -0.292339 0.136114 0.946579 0.457233 0.327661 0.826787 -0.416737 -0.890782 0.181213 0.678288 -0.677732 -0.283911 -0.216779 0.411702 0.88516 -0.5251 -0.819432 -0.229787 0.159632 -0.987085 -0.0134459 -0.622842 0.140222 -0.769679 0.962944 0.124035 -0.239489 0.838147 -0.0800163 0.539543 -0.119389 0.84248 0.525332 -0.31648 -0.834346 -0.451338 0.359062 -0.931125 -0.0638762 -0.158199 -0.480934 0.862366 0.482837 0.856576 -0.182061 -0.111572 -0.533012 -0.838719 0.564921 0.480927 0.670503 -0.683758 0.720762 -0.113918 0.842082 0.489082 -0.227367 0.605594 -0.703434 0.37207 -0.866414 -0.394495 0.306107 -0.474416 0.730842 -0.490714 -0.340152 0.310712 0.887556 0.611379 0.787793 0.0748262 0.715135 -0.606587 -0.347325 0.680257 0.203694 0.704101 -0.605833 -0.231477 -0.761173 0.426029 -0.732151 0.531464 -0.162847 0.674399 0.720185 -0.797236 0.221174 0.561692 0.381194 0.648033 0.659351 0.201726 -0.491607 0.84713 -0.933497 -0.310964 0.178561 0.991002 -0.0783719 0.108507 0.811864 -0.379508 0.443678 -0.11821 -0.82277 0.555946 -0.513312 0.665902 -0.541373 0.478627 -0.68796 0.545552 -0.869905 -0.461296 -0.174561 0.841943 0.472294 -0.260904 -0.568427 0.359867 0.739856 0.296682 -0.933656 0.200663 -0.140916 0.0613494 -0.988119 -0.712334 0.692412 -0.114659 0.466097 -0.500281 0.729707 -0.290695 0.803788 0.519058 0.368597 -0.534371 -0.760647 0.711425 -0.362876 0.601827 -0.774739 -0.505297 0.380071 0.604006 -0.599856 0.524738 0.68519 -0.491245 -0.537767 0.615809 0.720734 -0.318311 0.738398 -0.625902 0.251029 0.502884 0.494125 -0.709188 -0.859813 -0.377347 0.343993 -0.693288 0.555496 -0.459104 0.53652 0.0240873 0.843544 0.246178 -0.852833 0.460513 -0.290342 -0.87692 -0.383031 -0.609598 -0.48158 -0.629659 0.0587488 0.990246 -0.126341 -0.528985 0.139716 -0.837051 0.497224 -0.728109 0.471832 0.976382 -0.155958 0.149519 0.664728 -0.101034 -0.740222 -0.721488 0.602191 0.34179 0.456162 -0.0106263 0.889833 0.984359 -0.167288 0.0552405 -0.43215 0.795499 -0.424768 -0.846024 -0.462055 0.265986 0.873573 0.342774 0.345508 -0.663902 0.0887692 -0.742532 0.278271 -0.182762 -0.942955 0.38303 -0.499339 0.777142 -0.0762104 -0.478851 0.874582 -0.809714 -0.586396 0.0224131 0.569019 0.753426 0.329495 0.699375 0.496823 -0.51385 -0.0574035 0.501896 0.863021 -0.649538 0.735578 0.192421 0.140545 -0.926937 -0.347901 -0.673278 0.0100463 -0.739321 -0.897506 -0.301797 -0.321562 0.397405 0.711362 0.579684 -0.842877 0.535912 -0.0485497 -0.766958 -0.00703817 0.641658 0.358901 0.484597 -0.797719 -0.630571 0.69907 -0.337165 -0.857148 -0.428305 0.286099 0.60601 0.609809 0.51077 0.826285 0.514414 0.229414 -0.601208 0.797584 -0.0490757 -0.141542 0.975318 0.16947 -0.654731 0.513935 -0.554254 0.304617 0.946357 0.107781 -0.614536 0.734631 0.287512 0.873686 0.122332 -0.470859 -0.781491 -0.442855 -0.439491 -0.239532 0.701941 0.670748 0.482161 0.539482 0.690276 -0.511535 0.777719 -0.365356 -0.301715 -0.249378 -0.920206 -0.231738 -0.95896 -0.163379 0.115746 0.732745 -0.670588 -0.629798 0.387734 -0.673065 -0.795733 -0.585053 0.156595 0.624332 0.106133 -0.773916 -0.820757 0.497017 0.281661 -0.404765 -0.171431 0.898207 0.415991 -0.668447 0.616547 0.613788 -0.483415 0.624159 0.2071 0.93853 0.