# vtk DataFile Version 4.0
Generated by libgran
ASCII
DATASET POLYDATA
POINTS 1686 FLOAT
-32.608 1.31562 6.8614 -31.4164 0.631531 8.21527 -33.2183 1.25827 5.18545 -32.1671 2.25339 6.23721 -33.4938 0.581587 9.38694 -33.6775 1.71896 4.06142 -31.7597 -0.0763593 12.9439 -31.8375 -1.73375 13.5472 -32.1332 0.595842 11.8591 -32.1205 -0.570222 10.5019 -31.5479 1.06899 10.4966 -30.7927 1.07435 9.42495 -31.8692 -3.18231 16.206 -30.9155 -2.99854 15.2978 -30.8241 -1.85718 15.2373 -29.9593 -0.403227 14.7768 -29.342 -0.1482 15.5211 -29.2054 0.336901 14.0917 -33.3319 -3.86108 14.1372 -35.5231 -4.18383 15.4052 -34.3576 -3.82652 14.8742 -34.7283 -3.9829 16.5762 -36.2791 -4.63231 14.4011 -34.2037 -4.3076 17.6192 -34.3599 -2.90801 18.0107 -34.6656 -2.43358 19.0769 -33.3845 -2.44249 19.4055 -33.2349 -3.8944 22.1168 -34.1831 -2.86108 22.766 -33.4419 -2.94938 21.0707 -33.2788 -5.15501 22.5375 -34.4395 -6.48543 22.1348 -33.92 -2.88615 24.429 -32.6831 -3.5036 19.8091 -33.8703 -7.09383 20.1194 -34.701 -8.20933 19.795 -32.6279 -7.5526 20.0013 -31.5395 -7.76058 19.9613 -30.9927 -6.63457 21.2686 -31.6892 -6.02139 22.746 -30.53 -5.24504 21.4584 -34.0679 -9.41546 20.7548 -25.8996 -11.7774 23.0611 -26.8213 -11.2756 22.2446 -28.079 -12.2088 22.0884 -25.5284 -11.1285 24.9057 -26.9154 -11.1564 25.3266 -29.5012 -13.1551 22.1243 -31.3174 -10.5823 19.6395 -30.2747 -9.97139 18.9243 -30.8316 -11.7434 20.0683 -32.3561 -11.5417 20.4222 -30.0988 -12.7917 21.051 -33.2112 -10.6157 21.3332 -29.2596 -11.1601 17.9279 -29.1537 -12.336 16.7081 -28.2369 -14.5155 17.2527 -27.8536 -14.2583 16.0055 -29.0855 -13.5241 16.0965 -27.0271 -13.9306 18.3402 -26.0368 -13.73 15.7764 -25.4836 -13.6995 18.8373 -25.3787 -14.8113 19.0282 -25.246 -11.7657 12.2587 -26.23 -12.2664 11.9276 -26.6346 -10.8509 12.7372 -23.9878 -11.7552 12.6883 -23.7927 -12.3628 11.1602 -23.9341 -11.6477 14.5489 -24.6959 -12.4855 15.7182 -36.0229 15.2837 3.21916 -36.005 14.7196 1.31681 -35.9231 13.7309 1.1914 -35.1987 15.848 4.46285 -34.7635 15.7399 5.46439 -33.8256 16.0678 5.57696 -34.2726 15.5671 6.31826 -39.0579 14.0601 0.407724 -39.8064 14.7478 -0.448331 -38.0441 15.418 0.0691332 -38.4392 13.7217 1.26714 -39.2598 12.2852 0.598168 -40.0041 11.2109 0.940395 -40.7555 10.0814 1.5555 -44.908 10.6104 0.419469 -44.9683 9.72457 -0.348343 -45.4328 11.9489 -0.481375 -44.4978 12.1046 1.68219 -41.6582 9.54247 1.35384 -40.5926 8.53662 0.679764 -40.7723 8.78973 -0.609566 -40.4049 7.83763 -1.12429 -40.4807 7.0744 0.2595 -40.5681 10.2571 -1.55963 -42.0637 9.27881 -1.30927 -40.508 10.6326 -2.84374 -40.5222 5.63241 -0.194411 -41.0471 5.61823 1.3387 -40.925 7.15899 -7.55756 -40.0135 6.88252 -8.48523 -41.0432 5.42739 -8.28741 -41.3263 8.68651 -9.25888 -42.0216 8.11991 -9.84122 -42.4259 8.90981 -8.16326 -43.1208 7.72922 -10.5999 -43.1212 8.34321 -8.74561 -42.0275 3.9254 -8.09049 -42.2314 9.24223 -6.02712 -42.8399 9.22047 -7.22114 -42.4476 9.2297 -4.81922 -42.9202 9.04952 -3.81492 -43.7604 8.71776 -3.15195 -42.9731 8.56288 -2.44956 -44.7897 10.0715 -3.50372 -43.4277 9.85188 -1.37991 -39.3755 3.41699 -10.3716 -38.0336 3.59757 -11.4161 -38.7073 2.35562 -10.0477 -39.6995 4.65877 -10.0235 -40.0295 5.88454 -10.4627 -41.6767 5.79611 -10.4793 -39.2599 0.807676 -9.63841 -42.7236 5.3444 -11.0713 -41.9764 0.432248 -7.05734 -41.3027 1.59622 -7.21257 -42.439 2.31671 -7.48142 -40.0844 2.68177 -7.54727 -25.8491 12.9767 19.7639 -26.3205 13.9675 20.5149 -24.7586 14.063 20.1726 -27.145 12.2888 18.612 -29.0173 12.8546 19.7479 -29.6466 10.433 18.0102 -29.6834 11.9688 16.9428 -30.3378 9.36479 17.8616 -29.862 8.60375 18.4705 -28.893 11.8111 16.3509 -32.0061 8.99247 18.0128 -30.8927 9.38226 16.5004 -32.6036 8.79715 19.5786 -26.6614 4.10158 13.446 -26.4996 2.97882 13.3681 -26.9798 5.3203 13.8719 -28.5279 4.62808 13.7757 -27.99 2.29682 14.0951 -27.7059 1.89197 12.6766 -28.4756 1.64636 15.4372 -27.3447 1.08837 11.5468 -26.9829 1.28259 10.5544 -29.7741 8.90571 15.5875 -30.9048 8.88885 14.888 -28.4573 8.97821 15.1279 -30.8681 7.35213 13.9839 -31.9462 8.77494 13.7117 -31.4063 6.11544 13.9309 -29.9958 5.58724 13.8519 -33.2314 6.51223 5.71627 -34.2459 6.06698 4.98103 -32.7778 7.33738 6.43177 -32.3681 5.67302 6.92447 -36.0037 5.42815 5.47618 -34.093 3.9129 6.71836 -37.1493 5.92595 4.94239 -36.8542 5.96183 3.45705 -40.015 4.63453 3.44294 -38.4445 4.20621 3.62335 -41.1687 5.07404 2.95221 -41.3739 4.50823 1.21655 -37.3345 5.64257 2.59206 -37.9196 3.51241 4.90606 -32.4261 5.62927 11.6556 -31.6897 7.88271 10.6362 -33.007 8.25711 11.7273 -33.219 8.6413 12.7439 -34.0402 7.64662 13.1811 -32.213 10.1564 12.9178 -34.5286 6.37718 13.8431 -34.5804 3.30954 9.2909 -34.1785 3.18636 10.5523 -33.6104 3.43453 7.56212 -33.5768 3.48095 11.7784 -26.1923 23.3782 28.2387 -26.6399 22.103 28.728 -26.2152 22.8969 29.8036 -25.9383 23.5643 26.9468 -26.2954 25.0283 27.589 -27.031 26.2252 27.6838 -23.3875 23.5397 28.1617 -23.0593 23.7346 30.4757 -23.8933 24.352 31.6569 -22.7892 23.5173 29.192 -22.3564 23.2097 28.2166 -24.0941 25.3844 28.7525 -23.8617 24.465 32.8885 -25.8048 27.4815 33.103 -25.4269 28.4443 33.9415 -26.4519 29.3131 33.2329 -26.1458 26.8549 32.2545 -25.2016 26.1423 31.9802 -23.831 28.9826 34.9545 -25.9392 25.2931 31.3011 -21.2194 25.9262 34.6853 -21.4172 24.6199 34.8356 -21.0675 27.0169 34.7187 -20.0416 27.6194 35.5508 -21.0903 28.4595 35.171 -18.4947 27.2751 36.2548 -18.6459 28.5276 35.9184 -22.0933 29.3987 35.0813 -20.1653 29.5683 34.6795 -28.2481 23.7799 33.0348 -28.6795 26.0231 33.451 -30.7807 24.9454 35.5016 -30.6789 23.8374 34.6159 -30.2811 23.2044 32.8668 -26.9467 23.5078 32.9245 -32.0576 21.048 30.8912 -32.6439 21.8814 32.3627 -30.8013 20.8036 30.5263 -29.9469 20.4796 30.1201 -32.7364 22.8968 33.6467 -33.6391 22.4985 33.4837 -35.407 23.0277 33.2973 -36.1529 22.9906 31.9928 -35.7721 22.1234 31.5027 -37.1044 24.4138 31.2188 -37.604 24.1962 32.8515 -38.0356 24.9278 31.8676 -36.8455 22.2069 33.319 -37.6399 25.1647 34.463 -37.7756 26.2333 32.5853 -41.5505 25.8242 35.8001 -40.9498 26.9186 35.3423 -40.0155 26.1307 34.8461 -38.6167 26.0671 34.5664 -41.4847 26.1795 33.6287 -37.4912 26.2546 34.2106 -36.5611 9.4666 22.2346 -36.7547 8.45579 23.0757 -38.0466 9.751 22.9206 -35.1764 9.19107 21.3823 -36.2094 10.5826 21.353 -33.9159 7.84175 21.1199 -32.9436 7.05391 20.3826 -33.4713 6.35825 19.643 -31.8035 6.51751 19.6572 -34.0392 5.35079 18.9869 -34.1528 4.91813 20.3513 -30.0063 4.82081 19.1709 -29.566 5.81493 18.8538 -41.2278 10.6357 21.7837 -41.8811 9.97485 22.7348 -43.2789 9.68899 21.9546 -41.3747 12.1037 22.0298 -42.6718 11.9256 21.3597 -39.7614 8.04663 20.1036 -39.8204 9.63532 20.7754 -39.224 7.64586 21.005 -38.6647 7.20349 21.7061 -36.9619 7.40976 20.9902 -37.8401 6.48751 22.2416 -30.1874 16.081 22.4115 -31.3179 16.1711 23.1057 -30.1756 15.826 24.2923 -29.1645 15.513 21.7256 -30.072 15.2763 20.699 -32.285 16.9837 23.3457 -31.8161 17.9506 24.7391 -30.7575 18.5951 26.2275 -33.8878 11.0545 19.9131 -32.937 10.7209 20.7464 -32.1432 11.6975 19.897 -34.794 12 19.6824 -35.7875 11.1783 20.4329 -30.9548 11.7598 20.6708 -30.7475 12.7379 20.6522 -29.6181 19.9373 26.6736 -29.6741 18.3748 26.4158 -30.4532 20.0495 28.8436 -31.8302 20.1041 27.7368 -29.4458 16.8342 26.5355 -28.8511 15.6524 27.3864 -31.5038 20.3796 25.3885 -32.5031 19.7693 26.3943 -31.3514 21.6922 25.5364 -32.8577 22.4512 25.1752 -34.4757 22.2915 25.2491 -34.3917 23.6356 23.5517 -5.92634 24.66 38.0027 -4.93373 24.6116 38.114 -7.17715 24.2033 38.0534 -5.41127 23.9159 37.5773 -7.95993 25.3029 39.1498 -8.75868 23.8636 38.5319 -8.8078 24.9428 38.7607 -8.81729 25.8034 39.2698 -4.68305 22.9074 37.7809 -3.61889 23.5913 37.1556 -4.26713 21.2178 37.8034 -9.64013 23.0024 37.4666 -5.51767 19.4219 39.114 -5.6307 20.356 37.8978 -6.35025 18.2637 39.3451 -6.79166 17.2771 39.6414 -3.72037 20.5512 38.7227 -0.978947 24.872 38.1468 -2.10049 25.0116 37.4463 -2.29456 23.7932 37.3271 0.103487 26.4011 38.0312 -2.08813 26.6562 37.1157 -2.44563 22.5542 37.1532 -2.23415 28.4227 37.5023 0.496197 30.7777 37.8615 1.32152 29.547 38.5725 -2.29576 30.079 37.2016 2.31076 29.1404 37.7558 -3.07732 29.4053 38.5615 -20.8184 31.6577 42.3876 -19.6032 31.2194 42.0728 -20.8794 31.6468 44.0888 -22.0679 31.0849 42.6898 -18.3159 30.0778 44.4724 -18.6984 30.4257 46.0323 -17.7571 29.4571 42.9537 -15.436 28.6375 41.0291 -16.2112 28.4429 42.0917 -14.4837 27.2977 40.8389 -17.2611 28.3086 42.291 -17.0911 27.1598 43.2348 -16.181 26.7019 42.6422 -13.296 27.2918 41.6242 -14.083 26.7803 42.2731 -16.9134 26.3176 44.5748 -11.2073 23.8204 42.2431 -12.4401 24.1263 42.6431 -11.0855 24.3112 41.3803 -10.2881 23.9729 41.88 -12.7267 25.0665 43.7211 -13.1056 24.0149 44.5127 -13.4025 26.501 43.5726 -10.3398 25.4476 41.0608 -15.005 26.379 43.0138 -10.1286 27.5292 38.9845 -9.51726 26.3973 38.6196 -10.7006 27.0694 40.3574 -10.8174 28.0438 40.5495 -11.7027 27.5781 39.0453 -10.6301 27.4059 41.2965 -19.9221 34.9701 39.7306 -20.0762 35.9137 38.082 -18.9573 35.415 40.531 -18.8909 37.0149 40.3444 -18.5625 36.748 41.2505 -19.1205 37.5709 41.1433 -19.1597 38.7048 40.6429 -19.9428 35.5661 37.0351 -20.7592 36.9476 37.5701 -18.0497 37.9679 41.9591 -19.1726 40.6004 44.5954 -20.8877 40.2843 44.0206 -21.0411 40.8258 45.0412 -21.1444 39.5391 42.6459 -22.4791 39.555 43.854 -19.7754 39.3936 41.435 -18.0889 39.1018 41.4587 -21.0261 42.6028 46.4623 -19.9338 43.252 45.1713 -20.4313 42.1277 47.5524 -21.6199 41.4412 46.3285 -19.8849 43.3776 43.9121 -18.723 44.1279 44.7325 -20.5732 39.664 48.5847 -21.4346 38.5507 51.6302 -20.815 39.675 51.2838 -21.9062 40.3983 51.9823 -19.8783 39.5116 50.0505 -18.3693 40.4647 49.9343 -22.8506 41.1202 51.8043 -16.6803 28.2703 38.7329 -15.9853 28.011 37.6295 -16.1841 29.386 37.4511 -15.6993 26.4715 37.6209 -17.3117 29.6645 36.4828 -14.6276 25.9691 38.7817 -13.1764 26.8317 38.9102 -18.7179 29.5604 35.4445 -19.0113 30.6959 34.2782 -18.2954 30.0015 34.2054 -18.1181 30.9366 33.8983 -19.2951 31.7627 35.9861 -18.893 31.2028 37.019 -21.8532 30.179 37.0536 -22.3492 31.3792 36.0162 -22.0728 33.5757 41.5653 -23.6721 32.8825 41.6743 -21.4456 32.7371 40.746 -21.8725 32.6434 39.5416 -24.
[...]
POINT_DATA 1686
FIELD FieldData 1
normals 3 1686 double
-0.388036 0.414916 -0.822966 0.803547 -0.269169 0.530906 -0.222246 -0.472262 -0.85298 0.828922 0.522855 0.198776 -0.282961 0.85932 0.426031 -0.236919 0.932953 -0.271049 -0.383321 0.916411 -0.115133 -0.461118 -0.740978 0.488183 0.00987992 -0.24421 -0.969672 0.00279265 -0.921853 -0.387529 0.575387 0.717355 -0.392851 0.17981 -0.71199 -0.678777 -0.419979 -0.831257 0.364183 0.533709 -0.647487 -0.543981 0.62503 0.493867 -0.60451 0.239807 0.960088 0.143959 -0.377462 0.705061 -0.600343 0.514152 -0.21996 -0.829015 -0.802438 0.59356 -0.0614873 -0.942205 0.201688 -0.26753 0.223284 0.558998 -0.79854 -0.147371 0.402619 0.903427 0.186237 -0.650169 -0.736611 0.671954 -0.727319 0.139589 0.515711 0.672264 0.531134 -0.821379 -0.197826 0.534978 0.459751 -0.206735 0.863649 0.724124 -0.644853 0.244558 -0.224126 0.388466 0.893791 0.517147 0.300162 -0.801537 -0.767996 -0.615762 0.176124 -0.392701 -0.714652 -0.578842 0.487263 -0.413531 0.769134 0.241631 -0.854381 -0.460052 0.817437 0.143239 0.557924 -0.0132528 -0.972265 0.233505 0.424964 -0.602004 -0.676015 0.663477 0.394019 0.63604 -0.11673 0.731989 0.671242 -0.579753 -0.118809 0.806084 0.579511 0.657541 -0.481463 0.646395 -0.233863 0.726279 -0.341708 0.931539 -0.124381 -0.580004 -0.429704 -0.692062 -0.677747 -0.503564 0.535801 0.79659 0.580982 0.167049 -0.590373 0.553057 0.587868 -0.74439 -0.442672 -0.499925 -0.39385 -0.918969 0.0194364 0.648827 -0.308099 -0.695771 0.879632 -0.242176 0.409388 -0.64486 -0.0404512 0.763229 -0.146796 -0.806086 0.573303 -0.210265 0.966404 0.147826 0.366262 -0.880621 -0.300597 -0.260364 -0.295237 -0.919264 0.519948 -0.0984315 0.848508 0.903229 0.158765 -0.398712 -0.328609 0.892939 -0.307694 0.689847 0.683385 0.238948 0.913618 0.36952 0.169578 0.853656 -0.452362 0.258148 0.748753 0.659437 0.0671737 0.8701 -0.0598148 -0.489233 -0.113859 -0.560507 -0.820285 -0.518418 0.855061 -0.0106793 0.388188 0.070346 0.918891 0.583241 -0.537272 -0.609236 -0.334489 0.0371357 0.941668 -0.427307 -0.874968 0.227684 -0.0578905 0.171684 0.98345 -0.040024 -0.392454 -0.918901 -0.121922 0.596245 -0.79349 0.882124 0.392595 0.260244 -0.447004 -0.500668 0.741295 0.490982 -0.172779 0.853864 0.937985 0.32789 0.112567 -0.183408 -0.832127 0.52338 -0.931922 -0.144388 -0.332675 0.83034 0.525727 0.184789 0.802048 0.493758 0.336039 -0.0185119 -0.942768 -0.332935 -0.725839 -0.131584 0.675162 -0.0255669 -0.997868 -0.0600545 -0.537554 0.842599 -0.0325841 -0.597914 -0.0431957 -0.800396 0.0127124 0.495947 -0.86826 -0.487719 0.869306 -0.0802304 0.877116 -0.458928 0.141605 -0.188511 0.546921 0.815684 -0.368241 0.800036 -0.473646 -0.000814648 -0.152064 -0.98837 -0.076614 -0.915299 0.39542 0.572472 0.667306 -0.476422 -0.923147 -0.310961 -0.226058 -0.512334 -0.291832 -0.807681 0.0351158 -0.526691 -0.849331 -0.489804 -0.540872 0.683776 -0.271983 0.861422 0.428925 0.639589 0.584957 -0.498749 -0.390167 -0.870179 -0.30093 -0.294349 0.658355 0.692768 -0.989641 0.0917546 0.110419 -0.805258 -0.435055 0.402848 -0.109515 -0.482443 -0.869054 -0.109962 0.131544 0.985193 -0.594105 -0.631811 0.49785 0.217249 -0.723954 0.654747 -0.391268 -0.745717 -0.539273 -0.433469 0.711419 0.553161 -0.0391062 -0.891599 0.451134 -0.801066 0.559836 0.211839 -0.0137843 0.404964 0.914229 -0.228276 0.79387 -0.563614 -0.44084 0.884028 0.155417 -0.83591 0.383873 0.392295 0.505991 0.56445 -0.652204 -0.167651 -0.677499 0.716162 0.511895 0.857909 -0.0442136 -0.841834 0.367856 -0.394965 -0.805374 -0.456286 0.378385 -0.384929 -0.870445 -0.306846 -0.241515 0.0045795 -0.970386 -0.280001 0.907591 -0.312855 0.953638 0.256377 0.157626 -0.182614 0.976873 -0.111223 0.264731 0.829174 -0.492328 -0.388568 -0.481747 -0.785452 -0.860043 0.509059 -0.0344368 0.701868 0.604517 -0.37675 -0.907345 -0.206137 -0.366379 -0.700556 0.023874 -0.713198 0.201369 -0.937732 0.283036 0.164568 0.598103 -0.78434 -0.892567 -0.130484 -0.431622 -0.41683 -0.891524 0.177305 -0.62586 0.755837 -0.192377 -0.775754 -0.241839 0.582855 0.337687 0.147953 -0.929558 0.178278 0.0465217 0.98288 -0.884384 0.43687 0.164348 -0.722545 -0.685898 0.0864418 0.565961 0.781849 0.261535 -0.982148 0.0896281 0.165382 -0.767888 0.00389838 0.640572 -0.483831 -0.40095 -0.777912 0.282229 -0.654354 0.701547 0.845019 -0.402652 -0.351872 -0.483136 0.59688 -0.640557 0.780842 -0.624506 0.0166692 -0.349818 -0.641369 -0.682842 0.536035 0.697011 -0.476279 0.386517 -0.895351 -0.22125 -0.691575 0.527463 -0.493464 -0.924775 -0.341334 0.168171 0.485751 -0.869534 0.0892041 0.218558 -0.113107 0.969247 -0.795914 -0.558356 0.234009 0.235101 0.938264 -0.253747 0.644738 -0.726096 0.238951 -0.961943 -0.0804727 0.261132 0.953788 -0.299813 -0.0200296 -0.183592 0.578267 -0.794922 0.4787 -0.54238 -0.690413 -0.785502 0.436189 0.439005 0.785026 0.00787662 0.619413 -0.368213 0.00331999 -0.929736 0.163052 -0.569128 -0.805921 0.959032 -0.223117 0.174575 -0.260129 -0.701683 0.663305 0.275057 -0.712504 0.645509 -0.523926 0.651333 0.548878 -0.793315 -0.276927 0.542184 0.581273 0.661109 0.474402 -0.239913 -0.333569 0.911687 0.424788 0.853984 -0.300444 -0.248518 -0.935873 -0.24976 0.498921 -0.0535746 -0.86499 0.900884 -0.176751 0.396443 0.471153 0.178565 -0.863788 -0.299191 0.471339 0.829653 -0.337554 0.67795 -0.653025 -0.785141 -0.597295 -0.163683 -0.360378 0.196588 0.911856 0.591552 -0.49187 -0.63885 0.234496 0.972111 0.00331099 -0.970088 0.224838 0.0915289 0.74945 0.605769 0.267148 0.11895 -0.845554 -0.520471 -0.715115 -0.228203 0.660707 0.151132 0.628203 -0.76323 0.281614 -0.935777 -0.212168 -0.322073 -0.470417 -0.82157 0.746758 0.341224 0.570893 0.431693 -0.863782 -0.259851 0.809539 0.099042 0.578651 -0.215469 0.96782 -0.12999 -0.772763 0.237194 -0.588707 0.171451 -0.475372 -0.862917 0.786413 0.439211 0.434336 -0.909078 -0.373881 0.183819 0.123039 0.564252 -0.816383 -0.0748078 -0.742075 -0.66613 0.0288737 0.526424 0.849732 0.996946 0.0760812 -0.0176106 -0.0517386 0.916202 -0.397362 0.550037 -0.420392 0.721616 0.398767 0.832199 0.385266 -0.951244 0.023048 0.307576 0.976744 0.192614 -0.0941815 0.521287 -0.496099 -0.694368 0.851642 -0.162623 -0.498257 0.109848 -0.988158 0.107135 -0.00806119 -0.119845 -0.99276 0.405823 -0.513101 -0.75633 0.780136 0.224028 0.584123 0.413556 -0.768261 -0.488617 -0.172815 0.0652023 0.982794 0.84275 0.523901 0.123693 0.0115901 -0.847947 -0.529955 0.0803017 0.950145 0.301292 -0.822372 0.551884 0.138302 -0.945524 -0.0227375 -0.324756 -0.199591 0.0143274 0.979774 0.1813 -0.852839 0.489689 -0.610994 -0.433209 0.662583 0.11135 0.215582 0.970116 -0.320199 0.94725 -0.0137828 -0.493003 -0.798056 0.346488 -0.147211 0.752944 0.641408 0.580212 0.358208 0.731465 -0.965783 -0.220624 0.13634 -0.365064 0.873736 -0.321424 0.569219 0.0858378 -0.817693 0.829592 -0.149439 0.538001 -0.391943 -0.814405 0.427932 0.295874 0.336934 -0.893831 0.83566 0.406556 -0.369303 0.642056 -0.604256 0.471846 -0.649839 0.690956 0.316685 0.549047 -0.682087 -0.483016 -0.484016 0.709415 -0.512307 0.711435 -0.66723 0.2206 0.260839 -0.120614 -0.957818 -0.788495 -0.575046 0.218171 0.879266 -0.415785 0.232408 0.220539 -0.432409 -0.874291 0.106911 -0.865073 0.490121 -0.127645 0.414194 -0.901194 0.567905 0.579934 0.58409 0.1522 -0.0691687 0.985926 -0.805452 -0.591636 -0.0348331 -0.592343 0.305773 -0.745408 -0.962453 -0.0598389 0.264771 -0.334648 -0.118293 -0.934889 0.97302 0.141081 0.182558 0.127505 -0.104325 0.986336 -0.43558 -0.541849 0.718798 0.994883 0.0994772 -0.0176657 0.707876 0.106792 -0.698217 -0.170294 -0.815458 0.553198 0.17206 -0.13017 -0.976448 -0.958495 -0.0400803 -0.282277 0.183836 -0.385165 0.904352 0.850839 -0.437834 0.290472 -0.0567248 -0.67453 -0.736065 -0.0086204 0.852759 0.522234 0.477544 0.114058 0.871173 0.581027 0.530493 0.61724 -0.993654 0.0102322 0.112016 -0.042887 -0.323299 0.945324 0.751011 0.653283 0.0959345 0.0874517 0.935335 -0.342784 -0.905985 0.113644 0.407769 0.437371 -0.591018 0.677794 0.644634 0.387092 0.659248 0.558401 0.811724 -0.171151 0.502437 -0.75075 -0.428872 0.51783 -0.417862 0.746488 -0.859192 -0.363214 -0.360367 -0.274208 -0.7899 0.548514 0.868915 -0.391873 0.302361 0.812985 0.5818 -0.023746 -0.186284 -0.0284276 0.982085 -0.660609 0.730832 0.171697 -0.845679 0.0281344 -0.532949 -0.772305 -0.187752 0.606873 -0.447397 -0.740007 -0.502222 -0.477535 -0.695695 -0.536627 0.515071 -0.744165 -0.425347 -0.773278 0.238979 0.587308 0.992606 -0.0484713 0.11128 -0.00949474 0.860618 0.509163 -0.808253 -0.578693 -0.108816 -0.857364 0.500527 0.119995 -0.84787 -0.36009 -0.389168 -0.264387 -0.959995 0.0922458 0.799777 -0.276132 -0.533018 0.680311 -0.729598 -0.0697447 -0.0731933 -0.282508 -0.956469 0.148417 -0.964741 0.217364 0.0353862 -0.0306671 -0.998903 -0.980998 -0.193535 0.0136711 0.539593 -0.793043 0.282704 -0.13355 0.0629677 0.98904 0.791058 0.600791 0.115225 -0.330484 0.740396 -0.585315 -0.524552 -0.47802 -0.704515 0.291376 0.928335 -0.230856 0.342842 0.904187 0.254764 0.373477 -0.760904 0.530604 -0.488861 0.862344 0.13182 -0.394092 0.339829 -0.853937 0.431229 -0.890852 -0.142911 -0.427256 -0.793948 0.43255 0.558013 0.484266 -0.673875 -0.354309 0.120261 0.927363 -0.547015 -0.096948 0.83149 0.668255 -0.535211 0.516705 0.486026 0.0860022 0.869702 -0.702416 -0.475886 -0.529287 0.74494 -0.172049 -0.644565 0.362454 0.175856 0.91526 -0.186138 -0.448584 -0.874143 0.407451 -0.639661 -0.65178 -0.367749 -0.834266 0.410805 0.544812 -0.700076 0.461599 -0.682135 0.699984 -0.211458 -0.512181 -0.448761 0.732314 0.397934 -0.906712 0.139719 0.642883 0.694192 0.323727 -0.144039 0.182617 0.972576 0.689894 -0.393472 0.60764 0.797453 -0.338265 0.499645 -0.435391 -0.0323996 0.899658 0.919186 0.152515 -0.363093 0.121733 0.49078 -0.862738 0.148761 0.972649 0.17839 -0.230057 -0.0789933 0.969966 -0.82451 0.461848 -0.326925 -0.173476 0.983873 0.0435911 -0.77804 -0.583858 -0.231871 -0.759267 0.178038 0.625952 -0.147899 -0.953927 0.261055 0.187303 -0.63791 0.746986 0.0704618 0.336493 0.939046 -0.81479 -0.129215 -0.565174 -0.116841 0.974403 0.192061 0.340388 -0.332145 0.879668 0.186239 0.611509 -0.769007 0.624411 0.777056 -0.0793412 -0.558035 0.822864 -0.107203 -0.229627 0.555984 0.798845 0.328407 -0.266879 0.906049 0.289239 0.867043 0.405681 -0.052835 -0.95917 -0.277851 -0.869194 0.422347 0.257146 0.742381 0.663878 -0.0902015 0.994159 -0.105127 0.0244287 -0.720897 -0.421284 -0.550297 -0.874298 0.120264 0.470256 0.464125 -0.323834 -0.824451 -0.870591 -0.307989 0.383686 0.904929 0.178264 -0.386428 0.781551 -0.470043 0.410167 -0.298396 -0.666413 0.683266 0.793956 -0.0172187 -0.607731 0.893209 0.19133 0.406904 -0.295409 -0.495141 -0.817049 -0.745114 0.14286 -0.651457 0.416824 0.893152 0.16893 0.692328 -0.494057 0.525917 0.319603 -0.946072 0.0529388 0.939195 0.178267 -0.293486 -0.152048 0.901574 0.405026 -0.00253139 -0.341683 -0.939812 -0.464735 0.40895 -0.785354 -0.792335 -0.179714 -0.583017 0.68842 0.532441 -0.492528 0.00665624 -0.791712 -0.610858 -0.192146 0.583221 -0.789261 0.279328 -0.747807 0.602296 -0.935478 -0.304672 -0.179042 0.792333 0.245425 0.558548 0.658898 0.617149 -0.430094 -0.470707 0.200535 -0.859198 0.177287 0.935018 -0.3071 0.893193 0.240624 -0.379877 0.715905 -0.694394 -0.0727771 0.848603 0.161596 0.503745 -0.446574 -0.72148 0.529187 -0.746422 0.607357 -0.271978 0.250435 0.592757 -0.765455 0.948658 -0.0378388 -0.314032 -0.650708 -0.731103 -0.205104 -0.321451 -0.80084 -0.505296 -0.105462 0.707139 -0.699165 -0.4257 -0.878107 0.21842 -0.989874 -0.133087 0.0493725 -0.762551 0.645991 -0.0348088 -0.465739 -0.257705 -0.846567 -0.0485944 -0.897946 0.437414 -0.423004 -0.208062 0.881917 0.317808 -0.944866 -0.0789049 0.614761 0.157992 -0.772727 -0.038686 -0.598479 -0.800204 -0.653447 -0.756473 -0.0274779 -0.617655 0.785862 0.0304 -0.645344 -0.399793 0.650919 -0.00066983 0.976748 0.214389 0.547185 0.339911 0.764885 0.296329 -0.62709 0.72038 -0.250856 -0.967001 -0.0445053 0.180364 -0.981294 -0.0673087 0.934054 0.340935 -0.106329 0.96671 -0.19131 -0.169918 0.294055 0.952363 -0.0808436 0.386079 0.125396 0.913903 0.553145 0.00879218 -0.833039 0.81999 -0.0505628 0.570141 -0.162605 0.0729829 -0.983988 -0.332277 0.335432 0.88152 0.615853 0.783245 0.0851621 -0.358619 -0.509104 0.782436 -0.89393 0.447351 0.0276922 0.986774 -0.118427 -0.110688 0.0111997 0.518953 0.854729 0.186723 0.982315 -0.0138833 -0.452103 -0.816244 -0.35965 0.175523 0.463363 -0.868612 -0.230586 -0.150472 0.961347 -0.0311495 -0.149816 -0.988223 -0.911194 -0.275216 -0.306563 0.129347 0.225738 -0.965563 -0.384371 0.920378 -0.0718572 -0.155118 0.54232 0.825728 0.932508 -0.349853 -0.0896139 0.168138 -0.384419 0.907718 -0.137474 0.650063 -0.747342 -0.830458 -0.419684 -0.36634 0.945373 0.126729 -0.300348 -0.0260907 -0.000397283 0.99966 -0.228676 0.856607 0.462527 0.0899805 -0.165725 0.982058 0.0892148 -0.726121 0.681754 0.70851 -0.0120276 -0.705598 -0.0775168 0.630213 -0.772543 -0.591801 -0.577772 -0.562096 0.854656 0.153435 0.496005 0.497362 -0.230582 -0.836339 -0.532369 -0.192511 0.824332 -0.0187182 -0.0802103 0.996602 0.477676 -0.182726 -0.859323 0.303015 -0.946872 -0.107772 0.914931 0.200028 -0.350556 0.480902 0.647669 0.590981 0.816984 -0.190071 -0.544435 0.8532 0.48467 0.192731 0.0362161 0.674741 0.737166 0.755047 -0.529101 -0.387242 -0.964273 -0.256122 0.0676632 0.0507498 -0.997219 0.054584 -0.00984822 0.232625 -0.972517 -0.932593 0.313499 -0.178853 -0.714388 -0.585012 -0.383941 0.274949 0.334617 0.901351 -0.0079519 -0.992225 0.1242 0.868928 0.494356 -0.0239929 -0.412275 0.872464 -0.262367 0.875387 0.478761 0.0669756 0.31969 -0.769458 -0.55293 0.669476 0.705324 -0.233068 0.775241 -0.0726446 0.627475 0.834089 0.0507824 0.549287 -0.326721 -0.864773 0.381341 -0.258271 -0.326971 -0.909058 -0.594835 0.475448 0.648167 0.371595 -0.25488 0.892722 0.472362 -0.58921 0.65552 -0.673138 0.716302 0.183841 0.449522 0.449733 0.771797 -0.36936 -0.596229 0.7128 -0.854293 0.246511 -0.457619 -0.671118 0.34876 0.654192 0.726429 0.337276 -0.598787 -0.840164 0.530139 0.114355 -0.690712 0.477946 -0.542664 0.729395 0.679132 -0.0822332 -0.841551 -0.288711 -0.456551 0.323449 0.582959 -0.745345 -0.154865 0.811466 -0.563506 -0.180386 -0.796534 -0.577056 -0.438861 -0.337667 0.832696 -0.166271 -0.95196 -0.257148 0.36336 -0.35615 -0.860887 0.454647 -0.429741 0.780141 0.529631 0.59581 -0.603739 0.745938 0.262673 -0.612029 0.536287 0.746897 0.393118 0.82804 -0.553963 0.0864544 -0.248669 0.0225104 -0.968327 -0.552921 -0.690569 -0.466254 0.986386 -0.148402 -0.070844 -0.665329 0.276082 0.693626 -0.961493 0.117795 -0.248305 -0.296165 -0.158287 -0.94193 -0.0834152 -0.996476 -0.0087799 -0.627326 -0.643818 0.438133 0.64261 0.217531 0.734665 0.983483 -0.176779 -0.038867 -0.344664 0.185432 0.920229 -0.0254542 0.28593 -0.957912 -0.164187 0.934573 -0.31562 -0.421164 0.159483 -0.892853 -0.256977 -0.775091 -0.577232 -0.872371 -0.412363 0.262536 -0.988637 -0.0335331 -0.146536 -0.991798 -0.121238 0.0404688 -0.17305 0.139785 -0.974943 -0.200651 -0.322664 0.925001 0.68583 -0.72766 -0.0121744 0.171936 0.954994 -0.241713 0.995204 -0.0607124 -0.0767004 -0.291493 0.846087 0.446283 -0.223274 0.69771 0.680698 0.884156 0.466843 -0.0180351 -0.995897 0.0904497 0.00276262 -0.181069 -0.396943 0.899806 -0.0496641 0.56109 -0.826264 -0.863024 -0.403879 -0.303434 0.632218 0.539825 -0.555779 -0.933638 0.0411128 0.355852 -0.766287 0.573858 -0.288949 -0.372219 0.164844 0.913389 0.376396 -0.549125 -0.746182 0.650736 -0.737375 0.181166 0.971094 -0.217258 -0.0988734 -0.111818 -0.89478 -0.43228 0.141487 0.0183873 -0.989769 0.340242 0.0622545 -0.938275 0.188419 0.0749903 0.979221 -0.952828 0.0625568 0.296993 0.15927 0.82442 0.543106 0.0357781 0.856888 -0.51426 0.907487 0.392755 0.149036 -0.523294 0.670151 0.526366 0.277298 -0.116497 -0.953695 -0.164553 0.40487 -0.899446 -0.42495 0.510841 0.747301 -0.80753 0.539542 -0.238307 0.930285 0.281658 -0.23503 -0.200431 -0.78384 -0.587726 0.798486 -0.0348087 -0.601006 0.875148 -0.333975 0.350111 -0.754744 0.57658 -0.312917 -0.150596 -0.968845 -0.196624 0.48117 -0.639071 0.600053 0.0766617 -0.299166 0.951117 0.0381217 -0.998629 0.0358667 0.496349 -0.424033 0.757518 -0.927196 -0.346658 0.141897 0.577522 0.109269 -0.809029 -0.165441 0.8508 0.498767 0.170871 -0.47565 -0.862879 0.267736 -0.886102 0.378339 -0.926294 0.146187 -0.347288 0.154235 0.8419 -0.517122 0.905969 0.359872 -0.222963 -0.670852 -0.696845 -0.253699 -0.919603 -0.379483 -0.101597 -0.0650099 -0.545886 -0.835333 -0.987931 -0.151659 -0.0314876 -0.865765 -0.420473 0.271393 -0.779672 -0.312421 0.542682 -0.533848 0.842731 -0.0693642 0.337802 0.427451 -0.838556 0.514486 -0.246742 -0.821232 0.858486 -0.295393 0.41922 0.30387 -0.918373 -0.253485 -0.679456 -0.106273 0.725979 -0.636773 0.756797 0.147573 0.489123 -0.400245 0.77496 -0.162562 0.809685 0.563901 -0.995608 0.0861969 -0.0365424 0.995331 -0.0582482 0.07696 -0.191076 0.198079 0.961382 -0.976467 0.212144 0.0388128 -0.242455 0.128203 0.961655 0.497054 0.333492 0.801074 -0.418106 -0.888727 0.188022 0.65615 -0.680877 -0.325382 -0.183042 0.406049 0.895332 -0.54467 -0.808917 -0.221332 0.148843 -0.988337 -0.0321889 -0.640792 0.156223 -0.751651 0.954527 0.160024 -0.251536 0.847509 -0.0507628 0.528347 -0.14549 0.83355 0.532942 -0.289376 -0.84302 -0.453407 0.392116 -0.917116 -0.0717126 -0.129144 -0.488954 0.862697 0.447392 0.875791 -0.181191 -0.0881548 -0.377903 -0.921639 0.554679 0.500757 0.66451 -0.7114 0.694976 -0.104489 0.820523 0.520349 -0.2366 0.635757 -0.680895 0.363586 -0.849012 -0.429735 0.307417 -0.504682 0.716033 -0.482279 -0.343453 0.293139 0.892249 0.583552 0.808637 0.0746504 0.734364 -0.579775 -0.352945 0.674628 0.221742 0.704065 -0.599442 -0.246615 -0.761479 0.454252 -0.718437 0.526786 -0.183502 0.664278 0.724612 -0.802861 0.198551 0.562132 0.360869 0.657468 0.661445 0.226987 -0.478996 0.847962 -0.919961 -0.343557 0.188784 0.994121 -0.041748 0.0998977 0.826662 -0.362609 0.430285 -0.0829447 -0.828127 0.55437 -0.542569 0.649516 -0.53268 0.497687 -0.673733 0.546252 -0.857726 -0.484564 -0.171765 0.828661 0.493761 -0.26367 -0.575445 0.347402 0.740389 0.321837 -0.924777 0.202997 -0.14306 0.0530162 -0.988293 -0.731298 0.671389 -0.120169 0.456658 -0.499983 0.735854 -0.310278 0.796991 0.518202 0.383085 -0.530843 -0.755944 0.70214 -0.362742 0.612714 -0.779602 -0.50877 0.365204 0.596909 -0.600357 0.532232 0.695301 -0.487244 -0.528347 0.618293 0.724811 -0.303912 0.735777 -0.625088 0.260571 0.513243 0.4984 -0.698698 -0.864393 -0.38098 0.328145 -0.687073 0.555582 -0.468251 0.521513 0.0244196 0.852894 0.241048 -0.852808 0.463264 -0.280465 -0.877228 -0.389629 -0.597811 -0.480561 -0.641625 0.0584303 0.99076 -0.122395 -0.516754 0.141176 -0.844414 0.491747 -0.728495 0.476948 0.974173 -0.154112 0.165035 0.676911 -0.0978392 -0.729534 -0.7253 0.603147 0.331893 0.441371 -0.0129418 0.897231 0.983745 -0.164976 0.070916 -0.398918 0.806789 -0.43584 -0.865026 -0.437346 0.245883 0.874392 0.318324 0.366209 -0.641979 0.103764 -0.759669 0.294793 -0.17777 -0.93888 0.370084 -0.502778 0.781186 -0.117724 -0.47302 0.873151 -0.823795 -0.566877 -0.00345612 0.575044 0.741232 0.346264 0.728372 0.477809 -0.491093 -0.0752831 0.507009 0.858647 -0.637972 0.7516 0.167599 0.130169 -0.931438 -0.339822 -0.644375 0.0242471 -0.764325 -0.895437 -0.282172 -0.344343 0.395373 0.706337 0.58717 -0.827006 0.556729 -0.0781908 -0.786205 0.0145161 0.617795 0.39396 0.470923 -0.78932 -0.600601 0.715685 -0.356474 -0.876519 -0.405049 0.260098 0.598323 0.604708 0.525678 0.835014 0.491282 0.247777 -0.577048 0.814188 -0.0641395 -0.117416 0.979437 0.164062 -0.627524 0.530693 -0.569718 0.327333 0.938104 0.113196 -0.600276 0.751703 0.273152 0.890383 0.0953854 -0.445107 -0.779062 -0.426905 -0.459145 -0.241556 0.712591 0.658684 0.475348 0.533699 0.699435 -0.483027 0.786372 -0.385101 -0.277461 -0.24783 -0.928222 -0.248647 -0.95397 -0.167678 0.154531 0.727138 -0.668873 -0.597705 0.399468 -0.695107 -0.814052 -0.565606 0.131941 0.65208 0.0880289 -0.753022 -0.818616 0.517661 0.248788 -0.44033 -0.155429 0.88428 0.378285 -0.673089 0.635493 0.57974 -0.495261 0.647007 0.220758 0.934515 0.279189 -0.707637 0.179291 -0.683451 0