# vtk DataFile Version 4.0
Generated by libgran
ASCII
DATASET POLYDATA
POINTS 1686 FLOAT
-31.7977 1.19263 6.68843 -30.6492 0.698711 8.15738 -32.2697 0.996885 4.97864 -31.4082 2.14288 6.0491 -32.7872 0.494237 9.18229 -32.707 1.35106 3.80824 -31.3641 0.100012 12.8818 -31.5007 -1.51636 13.5787 -31.6222 0.736221 11.7431 -31.3987 -0.473596 10.4438 -30.9973 1.21516 10.4003 -30.169 1.25636 9.38495 -31.6781 -2.77781 16.3204 -30.6756 -2.65673 15.4552 -30.575 -1.52212 15.324 -29.6981 -0.0976785 14.7987 -29.051 0.217452 15.493 -29.0038 0.621526 14.033 -33.0539 -3.57895 14.2556 -35.3101 -3.73033 15.4525 -34.1146 -3.46738 14.9332 -34.5412 -3.47059 16.6292 -36.0495 -4.21243 14.4516 -34.0648 -3.73468 17.7117 -34.165 -2.30262 17.9869 -34.4565 -1.76803 19.0282 -33.1743 -1.78569 19.3526 -33.1252 -3.16183 22.0789 -33.8835 -2.00758 22.7726 -33.2359 -2.18632 21.0463 -33.334 -4.44612 22.353 -34.6184 -5.56074 21.7306 -33.5637 -2.09236 24.4236 -32.5114 -2.847 19.8162 -34.0429 -5.89102 19.6662 -34.9648 -6.83781 19.1246 -32.849 -6.44844 19.488 -31.7908 -6.77635 19.4391 -31.1777 -5.97489 20.9417 -31.8676 -5.53166 22.4816 -30.5532 -4.71183 21.3839 -34.4991 -8.25572 19.8659 -26.7116 -11.7366 21.9464 -27.5469 -11.0278 21.1928 -28.8844 -11.7923 20.8702 -26.3485 -11.4061 23.8752 -27.7464 -11.3507 24.2551 -30.394 -12.5804 20.7317 -31.8428 -9.49605 18.6352 -30.7084 -8.88717 18.0745 -31.4878 -10.7553 18.8728 -33.0012 -10.4643 19.2119 -30.9066 -12.0074 19.7071 -33.7997 -9.62436 20.249 -29.754 -9.99677 16.937 -29.6965 -10.969 15.5465 -28.9873 -13.2786 15.7567 -28.5117 -12.8474 14.592 -29.6921 -12.0431 14.7485 -27.8189 -12.9747 16.9939 -26.649 -12.4464 14.5466 -26.2878 -12.929 17.574 -26.24 -14.0603 17.5369 -25.5406 -9.97025 11.5184 -26.5253 -10.3517 11.0565 -26.9162 -9.10639 12.1145 -24.3043 -10.1009 11.9902 -24.0597 -10.4037 10.3806 -24.3343 -10.3509 13.8376 -25.2161 -11.3338 14.7894 -36.2516 14.6566 2.57423 -36.0636 14.1088 0.676329 -35.8582 13.1375 0.556693 -35.5689 15.308 3.86039 -35.1791 15.247 4.8843 -34.2942 15.6832 5.04748 -34.7182 15.1291 5.76387 -38.9601 13.0897 -0.395617 -39.7365 13.6846 -1.29529 -38.1012 14.5619 -0.680125 -38.3532 12.8246 0.497257 -38.9576 11.3027 -0.211838 -39.5711 10.1419 0.106762 -40.215 8.9247 0.674739 -44.2887 9.07505 -0.798573 -44.1715 8.24267 -1.61786 -44.8738 10.405 -1.67465 -44.168 10.5227 0.574576 -41.039 8.30235 0.392546 -39.8268 7.42944 -0.215966 -39.9165 7.70795 -1.50946 -39.4237 6.80797 -2.01311 -39.5508 5.99656 -0.660857 -39.7608 9.21126 -2.41127 -41.187 8.11154 -2.29649 -39.6341 9.62313 -3.67927 -39.4118 4.57228 -1.14994 -40.0828 4.46064 0.320919 -39.4588 6.25668 -8.50547 -38.4745 6.07811 -9.38137 -39.3864 4.53764 -9.27016 -39.8888 7.78192 -10.2018 -40.4982 7.17179 -10.8342 -41.0655 7.88806 -9.17044 -41.514 6.70683 -11.6638 -41.6748 7.27793 -9.80288 -40.249 2.95434 -9.15792 -41.0248 8.18887 -7.02119 -41.5586 8.14218 -8.24973 -41.3092 8.13181 -5.8288 -41.8334 7.8874 -4.86449 -42.6909 7.47122 -4.27541 -41.948 7.35868 -3.5187 -43.7942 8.75319 -4.66909 -42.5843 8.57572 -2.45745 -37.4349 2.72048 -11.2842 -36.0547 3.03592 -12.2432 -36.6988 1.71216 -10.9388 -37.8832 3.92275 -10.9353 -38.2902 5.12577 -11.3728 -39.9201 4.89968 -11.4895 -37.1405 0.114693 -10.5895 -40.8884 4.37469 -12.1507 -39.961 -0.543918 -8.18256 -39.381 0.675632 -8.27751 -40.5568 1.30385 -8.60179 -38.242 1.86674 -8.52026 -26.0338 12.8546 19.5099 -26.4457 13.8935 20.2304 -24.8677 13.8415 19.9598 -27.3336 12.2774 18.3029 -29.1924 13.0236 19.3346 -29.9626 10.6577 17.6435 -29.8148 12.1377 16.509 -30.73 9.64303 17.4934 -30.3582 8.87488 18.1628 -29.0159 11.8835 15.9638 -32.4278 9.39948 17.5485 -31.1977 9.65905 16.0999 -33.1311 9.28908 19.0782 -26.6766 4.42732 12.972 -26.4744 3.3086 12.9511 -27.0146 5.66279 13.329 -28.5322 4.905 13.4177 -27.8729 2.61783 13.8355 -27.6871 2.14002 12.4235 -28.2295 2.01933 15.2408 -27.3833 1.30201 11.3018 -27.1256 1.46195 10.2715 -30.0279 9.11797 15.2934 -31.1074 9.08199 14.518 -28.6934 9.12401 14.8813 -30.99 7.53183 13.6443 -32.1349 8.89446 13.3388 -31.4651 6.26867 13.6191 -30.0297 5.81075 13.5505 -32.9126 6.26742 5.33175 -33.7907 5.69552 4.51327 -32.6398 7.14443 6.07676 -32.0586 5.54877 6.62152 -35.4896 4.83462 4.8539 -33.5228 3.60965 6.31354 -36.6351 5.1753 4.20841 -36.2159 5.2364 2.75407 -39.1709 3.52542 2.49422 -37.5782 3.30635 2.80702 -40.3127 3.85549 1.90057 -40.2904 3.33011 0.1404 -36.5735 4.8574 1.85444 -37.0664 2.67899 4.12865 -32.3256 5.73848 11.3377 -31.6656 8.03491 10.3252 -33.0773 8.32125 11.3205 -33.3624 8.68396 12.3271 -34.1378 7.6356 12.7202 -32.4805 10.267 12.56 -34.5961 6.33821 13.3487 -34.125 3.07118 8.87546 -33.8033 3.05563 10.1655 -33.0534 3.22243 7.20989 -33.3271 3.47569 11.4101 -26.0568 23.3743 27.9188 -26.5687 22.1167 28.3905 -26.1214 22.8805 29.4786 -25.7783 23.5601 26.6319 -26.0757 25.0332 27.2837 -26.7565 26.2619 27.3811 -23.2468 23.4069 27.8773 -22.939 23.5655 30.1969 -23.7589 24.2099 31.3735 -22.663 23.3476 28.9145 -22.2327 23.0292 27.9415 -23.8751 25.2769 28.4771 -23.7376 24.3094 32.6065 -25.5421 27.4118 32.8262 -25.1304 28.3491 33.6775 -26.1063 29.2699 32.9652 -25.9009 26.8091 31.9676 -24.9871 26.0562 31.6982 -23.5221 28.8043 34.7115 -25.7544 25.2479 31.0022 -21.0433 25.6323 34.4319 -21.2972 24.334 34.567 -20.8501 26.7159 34.4776 -19.805 27.2619 35.3246 -20.8105 28.1534 34.9451 -18.2818 26.8395 36.0378 -18.3723 28.1011 35.7135 -21.7684 29.1388 34.8569 -19.8312 29.2233 34.473 -28.1531 23.8279 32.6924 -28.4851 26.0846 33.1252 -30.6617 25.0875 35.1375 -30.5997 23.9845 34.2421 -30.2082 23.3503 32.492 -26.8642 23.4975 32.5955 -32.0544 21.2895 30.4792 -32.6213 22.1386 31.9493 -30.8059 20.9917 30.1276 -29.9619 20.6324 29.7294 -32.6843 23.1485 33.2395 -33.6018 22.7924 33.0625 -35.3417 23.4017 32.8584 -36.0723 23.4106 31.5447 -35.7234 22.5327 31.0499 -36.9512 24.8818 30.7748 -37.4801 24.6694 32.399 -37.8672 25.4293 31.4179 -36.8148 22.6442 32.8541 -37.4939 25.622 34.0203 -37.5596 26.7147 32.1528 -41.3887 26.4333 35.3164 -40.7361 27.5063 34.8794 -39.83 26.685 34.3851 -38.4317 26.565 34.1218 -41.2801 26.8107 33.1504 -37.2948 26.7069 33.7815 -37.1729 10.386 21.4199 -37.5214 9.41452 22.2574 -38.6664 10.8261 21.9978 -35.7629 9.95889 20.6787 -36.655 11.4387 20.5424 -34.617 8.49403 20.5395 -33.6675 7.60489 19.8935 -34.1906 6.92638 19.1349 -32.521 6.96687 19.2673 -34.772 5.92869 18.4756 -35.027 5.56986 19.8424 -30.8136 5.13963 18.954 -30.2875 6.09401 18.6457 -41.6368 12.0149 20.5982 -42.4311 11.442 21.4975 -43.7819 11.2873 20.6056 -41.6495 13.4945 20.8177 -42.8988 13.4391 20.0434 -40.3161 9.2588 19.0699 -40.2635 10.8569 19.7199 -39.8988 8.82051 20.0163 -39.4479 8.3339 20.7646 -37.6806 8.34207 20.1892 -38.75 7.55051 21.3799 -30.1974 16.3075 21.9949 -31.3417 16.438 22.6595 -30.2455 16.0433 23.8739 -29.1968 15.6743 21.3334 -30.0864 15.5144 20.2767 -32.2832 17.2855 22.8798 -31.813 18.2255 24.291 -30.7677 18.8211 25.8089 -34.2032 11.6507 19.2644 -33.3474 11.2616 20.1732 -32.4093 12.1317 19.3557 -34.9994 12.6657 18.9413 -36.1144 11.965 19.6422 -31.2503 12.0851 20.1738 -30.9593 13.0419 20.1739 -29.5905 20.1173 26.2916 -29.698 18.5596 26.0216 -30.4709 20.2336 28.4439 -31.822 20.3476 27.3099 -29.5273 17.0113 26.1379 -28.9933 15.8019 26.9903 -31.4321 20.6392 24.9735 -32.474 20.0506 25.9484 -31.2373 21.9408 25.1635 -32.7234 22.7488 24.8258 -34.3437 22.6196 24.9074 -34.2466 24.0111 23.251 -5.75093 23.8021 37.729 -4.75791 23.7423 37.8306 -7.00672 23.3616 37.797 -5.24955 23.0473 37.306 -7.76444 24.4818 38.8902 -8.58732 23.0464 38.295 -8.62068 24.1284 38.5134 -8.61425 24.9942 39.0139 -4.53182 22.0319 37.5123 -3.46577 22.6961 36.8693 -4.13386 20.3387 37.5652 -9.49641 22.1948 37.2454 -5.18059 18.5334 38.8895 -5.36556 19.4216 37.648 -5.83137 17.26 39.0975 -6.12925 16.2222 39.3976 -3.575 19.7063 38.5013 -0.817293 23.9807 37.8136 -1.96316 24.1059 37.1508 -2.13748 22.8852 37.0239 0.229744 25.5332 37.685 -1.99181 25.7537 36.8378 -2.30414 21.6461 36.8666 -2.15713 27.513 37.2485 0.539399 29.9166 37.5349 1.41174 28.6969 38.2077 -2.26015 29.1707 36.967 2.37421 28.3135 37.3488 -2.9806 28.4693 38.3466 -20.4162 31.1939 42.1908 -19.2226 30.6988 41.8775 -20.494 31.1466 43.8907 -21.6989 30.686 42.4689 -18.012 29.4482 44.2659 -18.3919 29.7867 45.8284 -17.4652 28.8306 42.7416 -15.1679 27.969 40.7993 -15.9459 27.7855 41.8618 -14.255 26.6046 40.5925 -16.9988 27.6793 42.0625 -16.8597 26.5161 42.9936 -15.9645 26.0386 42.3939 -13.0661 26.5563 41.3747 -13.8659 26.0606 42.0201 -16.7043 25.6371 44.3125 -11.0853 23.0178 41.9426 -12.3046 23.3574 42.3566 -10.9547 23.5156 41.0852 -10.1645 23.1457 41.5739 -12.5564 24.2933 43.447 -12.9584 23.244 44.2302 -13.1908 25.7482 43.3148 -10.1757 24.6317 40.7739 -14.7974 25.6782 42.759 -9.90697 26.7333 38.7244 -9.31348 25.5902 38.3648 -10.4875 26.2735 40.0938 -10.5723 27.2485 40.2994 -11.4784 26.8315 38.7933 -10.4023 26.595 41.0369 -19.3372 34.5073 39.6016 -19.4411 35.4902 37.972 -18.3507 34.8852 40.4099 -18.1994 36.479 40.2207 -17.9094 36.1999 41.1361 -18.4225 37.0491 41.0114 -18.3914 38.1814 40.5069 -19.3251 35.1568 36.9184 -20.0691 36.568 37.4809 -17.3557 37.3956 41.855 -18.3859 39.9566 44.4936 -20.1045 39.7803 43.8715 -20.245 40.2887 44.9108 -20.3774 39.1018 42.4658 -21.7395 39.1755 43.6407 -18.9931 38.9034 41.28 -17.3246 38.5279 41.3506 -20.0997 41.9323 46.4615 -18.8886 42.5373 45.2579 -19.6081 41.3258 47.5378 -20.809 40.8545 46.2271 -18.7804 42.6956 44.0061 -17.5926 43.3199 44.8923 -20.0525 38.8246 48.3768 -21.18 37.6179 51.2918 -20.4268 38.688 51.0564 -21.4682 39.4776 51.7592 -19.4512 38.5038 49.8567 -17.8476 39.2932 49.873 -22.3139 40.3142 51.5877 -16.4378 27.7074 38.5284 -15.7499 27.4369 37.4232 -15.8841 28.8226 37.2699 -15.5201 25.8884 37.3833 -16.9921 29.1693 36.3009 -14.4571 25.3249 38.5238 -12.975 26.133 38.6544 -18.3924 29.1408 35.25 -18.6229 30.3005 34.0934 -17.9392 29.5746 34.0192 -17.7163 30.5036 33.7235 -18.8725 31.3605 35.8102 -18.5052 30.7733 36.841 -21.5086 29.8837 36.8377 -21.9446 31.1213 35.8176 -21.5592 33.1912 41.4087 -23.1939 32.5829 41.4986 -20.9753 32.3372 40.5733 -21.4055 32.2893 39
[...]
POINT_DATA 1686
FIELD FieldData 1
normals 3 1686 double
-0.364478 0.334758 -0.868961 0.784015 -0.15916 0.599991 -0.107564 -0.530502 -0.840832 0.753947 0.615495 0.229631 -0.387677 0.8482 0.36092 -0.329746 0.884678 -0.329565 -0.358482 0.915276 -0.183742 -0.495121 -0.701099 0.513143 0.100402 -0.279067 -0.955008 0.123081 -0.930751 -0.344317 0.524458 0.758008 -0.387773 0.303849 -0.716809 -0.627583 -0.443555 -0.804363 0.395296 0.558854 -0.683282 -0.469902 0.659486 0.451328 -0.601151 0.217465 0.973117 0.0758451 -0.429626 0.657986 -0.618447 0.476796 -0.253912 -0.841543 -0.789008 0.594554 -0.15483 -0.923862 0.220034 -0.313153 0.271634 0.482985 -0.832431 -0.155034 0.479776 0.863585 0.184458 -0.702133 -0.687738 0.631469 -0.743862 0.218897 0.531276 0.688196 0.494097 -0.822766 -0.153609 0.547229 0.459377 -0.171265 0.871574 0.631655 -0.746149 0.210413 -0.126603 0.408106 0.904114 0.520964 0.229366 -0.822185 -0.840455 -0.538132 0.063628 -0.443946 -0.576488 -0.685984 0.446364 -0.492891 0.746872 0.203519 -0.890047 -0.407916 0.807032 -0.0454654 0.588755 -0.114887 -0.992257 0.0471896 0.386914 -0.511951 -0.766944 0.671217 0.184043 0.71805 -0.0581412 0.617413 0.784487 -0.631692 -0.174182 0.755398 0.682662 0.645653 -0.342205 0.580622 -0.42565 0.694046 -0.242305 0.970167 0.0080586 -0.593005 -0.261363 -0.7616 -0.744478 -0.503078 0.438936 0.84348 0.464281 0.270156 -0.554445 0.519732 0.649976 -0.76509 -0.285056 -0.577391 -0.478657 -0.865185 -0.149474 0.655666 -0.256304 -0.710218 0.833618 -0.394061 0.387036 -0.679749 -0.103056 0.726168 -0.252429 -0.858057 0.447234 -0.118768 0.94299 0.310909 0.298791 -0.853297 -0.427327 -0.241269 -0.118915 -0.963145 0.459139 -0.280369 0.842962 0.934744 0.150861 -0.321706 -0.245634 0.955184 -0.16519 0.709329 0.584329 0.394223 0.927956 0.250145 0.276271 0.821749 -0.538658 0.185945 0.773943 0.592673 0.223048 0.889408 -0.00116128 -0.457112 -0.0952883 -0.382635 -0.918973 -0.486242 0.862702 0.138974 0.346838 -0.129515 0.92894 0.591423 -0.432287 -0.680696 -0.376831 -0.120415 0.918422 -0.504968 -0.862491 0.0334193 -0.131171 0.158341 0.978633 0.0567983 -0.389507 -0.91927 -0.14858 0.581815 -0.799635 0.813831 0.493061 0.307522 -0.42399 -0.554097 0.716386 0.460926 -0.117871 0.879576 0.884916 0.436227 0.163188 -0.110514 -0.85019 0.514746 -0.886924 -0.255331 -0.384931 0.748363 0.622047 0.230239 0.717404 0.585107 0.378128 0.113018 -0.93685 -0.330967 -0.726574 -0.223948 0.649567 0.082737 -0.993226 -0.0815903 -0.623689 0.780576 -0.0413937 -0.506503 -0.0518 -0.860681 0.0385461 0.54938 -0.834683 -0.57518 0.81399 -0.0811661 0.906758 -0.370875 0.200603 -0.305436 0.502037 0.809115 -0.395114 0.780551 -0.48438 0.097649 -0.119426 -0.988029 -0.0294761 -0.930845 0.364224 0.550794 0.722759 -0.417426 -0.875388 -0.376965 -0.302643 -0.424109 -0.310888 -0.850576 0.168512 -0.493431 -0.853305 -0.502516 -0.605069 0.617552 -0.368875 0.82595 0.426308 0.61544 0.647375 -0.449599 -0.296456 -0.893089 -0.338388 -0.389212 0.616001 0.684877 -0.998607 0.0058669 0.0524439 -0.787398 -0.509861 0.346479 -0.0171988 -0.470822 -0.88206 -0.177999 0.100273 0.978908 -0.566158 -0.690211 0.450637 0.239568 -0.717288 0.654298 -0.294253 -0.763979 -0.574239 -0.523986 0.660221 0.538095 -0.000210878 -0.904624 0.426211 -0.857266 0.488436 0.162865 -0.114384 0.375896 0.919575 -0.246079 0.793538 -0.556545 -0.521921 0.841145 0.141679 -0.886999 0.303635 0.347906 0.493249 0.619081 -0.611101 -0.150818 -0.704684 0.693307 0.438695 0.898635 0.00100376 -0.845639 0.304391 -0.438451 -0.784281 -0.530484 0.321699 -0.290884 -0.892781 -0.343989 -0.184054 0.00548814 -0.982901 -0.337544 0.887488 -0.313735 0.917533 0.332062 0.218788 -0.258328 0.960281 -0.10549 0.221417 0.859046 -0.461536 -0.3953 -0.453744 -0.798658 -0.807138 0.585162 -0.0781914 0.77081 0.533103 -0.348789 -0.904459 -0.123447 -0.408307 -0.669614 0.0878887 -0.73749 0.104404 -0.936917 0.333595 0.252208 0.543149 -0.800862 -0.8718 -0.0777261 -0.483656 -0.500012 -0.845877 0.185686 -0.546658 0.797377 -0.255647 -0.825974 -0.165829 0.538765 0.404098 0.093741 -0.9099 0.122694 0.0554356 0.990895 -0.887084 0.413645 0.204892 -0.684843 -0.705074 0.184014 0.549076 0.821824 0.152056 -0.968471 0.0640368 0.240754 -0.713656 0.0143017 0.70035 -0.527875 -0.463508 -0.711694 0.357081 -0.612805 0.704956 0.831679 -0.374499 -0.409953 -0.57401 0.534431 -0.6204 0.765706 -0.634816 0.103456 -0.31383 -0.670795 -0.671971 0.568752 0.640853 -0.515586 0.431271 -0.879374 -0.20176 -0.713598 0.483259 -0.507187 -0.906382 -0.383781 0.17659 0.529033 -0.841706 0.107961 0.142711 -0.0847181 0.986132 -0.735358 -0.656613 0.167655 0.130128 0.961731 -0.241124 0.711291 -0.633931 0.303637 -0.963507 -0.204294 0.172967 0.978564 -0.19797 0.0567566 -0.182034 0.544972 -0.818455 0.601261 -0.483872 -0.635888 -0.869108 0.329988 0.368456 0.723601 0.110919 0.681248 -0.27268 8.43007e-05 -0.962105 0.294914 -0.525462 -0.79807 0.958877 -0.104875 0.263736 -0.211789 -0.738274 0.640388 0.255873 -0.697018 0.669847 -0.612757 0.617388 0.493316 -0.798996 -0.331047 0.50201 0.513928 0.693755 0.504562 -0.261522 -0.354612 0.897695 0.367995 0.889251 -0.271684 -0.196715 -0.942777 -0.26921 0.562423 -0.0379996 -0.825976 0.884185 -0.0535498 0.464058 0.509178 0.189246 -0.839597 -0.408034 0.47361 0.780514 -0.297786 0.698648 -0.65055 -0.809686 -0.558938 -0.178876 -0.362345 0.204797 0.909266 0.576247 -0.512873 -0.636318 0.278927 0.960188 0.0154443 -0.959784 0.268523 0.0819183 0.773127 0.56812 0.281981 0.086614 -0.845391 -0.527079 -0.733259 -0.200974 0.649569 0.189377 0.627462 -0.755266 0.240901 -0.945804 -0.217766 -0.33304 -0.447634 -0.829885 0.754561 0.300428 0.583421 0.394724 -0.880441 -0.26271 0.806399 0.0569117 0.588628 -0.16942 0.977749 -0.123711 -0.753525 0.277818 -0.595833 0.160278 -0.475098 -0.865213 0.801913 0.398265 0.445332 -0.927542 -0.33322 0.169205 0.147509 0.567872 -0.809792 -0.106468 -0.730378 -0.674694 0.0455993 0.515819 0.855483 0.999508 0.0301817 -0.00850191 -0.0059954 0.921627 -0.38803 0.523722 -0.452672 0.721667 0.433256 0.808935 0.397383 -0.951845 0.0637652 0.299876 0.985369 0.148298 -0.0839986 0.506776 -0.513412 -0.692522 0.849499 -0.197428 -0.489258 0.0620979 -0.9932 0.0984813 -0.000116354 -0.109821 -0.993951 0.391619 -0.524339 -0.756111 0.782141 0.182986 0.595627 0.384845 -0.782765 -0.489052 -0.182071 0.0663275 0.981046 0.863697 0.484898 0.13748 -0.0197229 -0.84418 -0.535697 0.119116 0.943525 0.309147 -0.798419 0.58741 0.1322 -0.941505 0.0218789 -0.336287 -0.210951 0.0129499 0.977411 0.137922 -0.864926 0.482576 -0.637456 -0.412927 0.650494 0.108547 0.200535 0.973655 -0.278493 0.96041 -0.00737574 -0.531526 -0.779305 0.331909 -0.122284 0.752017 0.647701 0.586102 0.325015 0.742193 -0.975958 -0.180753 0.121796 -0.323417 0.892229 -0.315166 0.582741 0.0710013 -0.80955 0.81555 -0.191015 0.546253 -0.431676 -0.801869 0.413113 0.321347 0.332874 -0.886528 0.894665 0.316536 -0.315245 0.546115 -0.654971 0.522275 -0.59881 0.756565 0.262747 0.515306 -0.743681 -0.42591 -0.376808 0.736153 -0.562222 0.630619 -0.721181 0.286735 0.318876 -0.167957 -0.932796 -0.84201 -0.510547 0.174243 0.827673 -0.470065 0.306588 0.260634 -0.487141 -0.833525 0.00561201 -0.845971 0.533199 -0.0363711 0.395559 -0.91772 0.562459 0.55882 0.609393 0.0628453 -0.0669609 0.995774 -0.857152 -0.505956 -0.0964286 -0.493709 0.351279 -0.795522 -0.981891 0.0444348 0.18416 -0.267405 -0.0997519 -0.958407 0.96425 0.0429645 0.261487 0.03476 -0.0992647 0.994454 -0.547032 -0.481258 0.684943 0.997976 -0.00534866 0.0633642 0.769314 0.0135194 -0.638728 -0.300055 -0.778042 0.551921 0.192863 -0.132072 -0.972297 -0.951467 -0.00159291 -0.307745 0.144682 -0.396304 0.906648 0.80764 -0.50112 0.3108 -0.0818752 -0.660968 -0.745935 0.00994921 0.849141 0.528073 0.460206 0.0908652 0.88315 0.585143 0.504723 0.634714 -0.993745 0.104332 0.0398337 -0.137988 -0.284803 0.948602 0.800113 0.58534 0.131134 0.197508 0.910629 -0.362968 -0.91745 0.209923 0.337961 0.358932 -0.631903 0.686925 0.649932 0.32482 0.687081 0.59201 0.79147 -0.151983 0.484562 -0.766223 -0.422021 0.48935 -0.445421 0.749758 -0.861667 -0.331439 -0.384289 -0.31387 -0.782113 0.538316 0.847827 -0.427257 0.314072 0.832313 0.554301 0.00224299 -0.20959 -0.0343755 0.977185 -0.637461 0.747253 0.187767 -0.848672 0.0607321 -0.525421 -0.771658 -0.189908 0.607025 -0.463673 -0.716045 -0.521811 -0.491638 -0.695011 -0.524644 0.501387 -0.754768 -0.423008 -0.764151 0.254496 0.59271 0.993025 -0.059758 0.101635 0.00643279 0.865725 0.500479 -0.816446 -0.569605 -0.0946924 -0.849809 0.512382 0.123651 -0.856242 -0.353342 -0.376828 -0.2753 -0.955643 0.104669 0.790746 -0.291433 -0.53832 0.673258 -0.737594 -0.0517582 -0.0926446 -0.282055 -0.954915 0.286032 -0.925743 0.247359 0.101065 -0.0375034 -0.994173 -0.936808 -0.347612 -0.0394421 0.638926 -0.690279 0.339541 -0.114396 0.105252 0.987844 0.782645 0.614883 0.0968803 -0.363223 0.740072 -0.566006 -0.537546 -0.480552 -0.692902 0.264393 0.937669 -0.225553 0.334574 0.907752 0.253074 0.370889 -0.758601 0.535691 -0.499896 0.851616 0.157654 -0.429432 0.338361 -0.837317 0.44291 -0.88134 -0.164533 -0.396872 -0.805996 0.439162 0.51956 0.49792 -0.694358 -0.323577 0.104682 0.940393 -0.55958 -0.0851928 0.824386 0.634054 -0.580304 0.5111 0.481739 0.0378847 0.875496 -0.723087 -0.422725 -0.546305 0.7426 -0.187758 -0.642878 0.362677 0.150699 0.91965 -0.195788 -0.429859 -0.881413 0.387405 -0.644133 -0.659553 -0.390622 -0.827683 0.402934 0.525533 -0.72029 0.452766 -0.662227 0.721483 -0.202282 -0.523178 -0.44163 0.728867 0.372039 -0.919195 0.129106 0.663304 0.671974 0.329361 -0.136497 0.176334 0.974821 0.678608 -0.437451 0.590024 0.790166 -0.369816 0.488748 -0.429153 -0.0301826 0.902727 0.920707 0.127952 -0.368683 0.130541 0.497768 -0.85743 0.177303 0.966088 0.187717 -0.224666 -0.0832623 0.970872 -0.811649 0.488772 -0.319886 -0.141728 0.988236 0.0574641 -0.795024 -0.558787 -0.235994 -0.750497 0.193774 0.631828 -0.15701 -0.949341 0.272211 0.170001 -0.653531 0.737562 0.0852107 0.321441 0.943088 -0.820919 -0.0955402 -0.562995 -0.0847898 0.974971 0.205527 0.322104 -0.366736 0.872785 0.218254 0.616115 -0.756814 0.6644 0.74459 -0.0644877 -0.513086 0.849227 -0.124721 -0.223108 0.570099 0.790702 0.289978 -0.279127 0.915424 0.321125 0.853226 0.410955 -0.102292 -0.949459 -0.296757 -0.846314 0.461682 0.26571 0.776816 0.625621 -0.0718036 0.984167 -0.172668 0.0400122 -0.734432 -0.348959 -0.582097 -0.87496 0.159445 0.45719 0.461483 -0.329614 -0.823643 -0.900615 -0.255853 0.351328 0.922848 0.13126 -0.362107 0.74567 -0.506731 0.432666 -0.398302 -0.671502 0.624852 0.812786 -0.0665499 -0.578748 0.889919 0.0650062 0.451463 -0.310989 -0.406322 -0.859179 -0.704604 0.224843 -0.673037 0.483246 0.849139 0.213157 0.610361 -0.598308 0.519121 0.213299 -0.97698 -0.00362002 0.966528 0.0931906 -0.23904 -0.074862 0.882782 0.46378 0.00904494 -0.277437 -0.960701 -0.379937 0.508871 -0.772462 -0.770873 -0.0461634 -0.635314 0.71472 0.509097 -0.479579 -0.0268768 -0.779658 -0.625628 -0.161073 0.606085 -0.77892 0.25671 -0.76875 0.585768 -0.946902 -0.259343 -0.190047 0.806347 0.205176 0.554714 0.675701 0.602957 -0.424111 -0.453391 0.230808 -0.860909 0.22285 0.928933 -0.295672 0.906635 0.203029 -0.369854 0.683784 -0.725904 -0.0741815 0.850461 0.118517 0.512513 -0.483218 -0.705631 0.518252 -0.71743 0.643649 -0.266479 0.281395 0.593989 -0.753653 0.945794 -0.0808722 -0.314537 -0.68894 -0.689152 -0.224571 -0.361938 -0.773112 -0.520863 -0.0682456 0.72522 -0.685126 -0.474368 -0.8582 0.196134 -0.996285 -0.075652 0.0411497 -0.728004 0.685227 -0.0218049 -0.477856 -0.216416 -0.851363 -0.0954138 -0.902691 0.419578 -0.433878 -0.203243 0.877749 0.268446 -0.95833 -0.0976726 0.622693 0.141146 -0.769631 -0.0690792 -0.579732 -0.811874 -0.691772 -0.720879 -0.0422447 -0.626457 0.779236 0.0185247 -0.677884 -0.425497 0.599521 -0.0167195 0.975266 0.2204 0.473029 0.359141 0.804526 0.263634 -0.616674 0.741762 -0.209395 -0.975815 -0.0627633 0.226922 -0.971721 -0.0653103 0.930159 0.354762 -0.0945977 0.982223 -0.144998 -0.119218 0.254793 0.965862 -0.0468059 0.329274 0.123195 0.936163 0.585772 -0.0182313 -0.810271 0.797225 0.039669 0.602378 -0.112006 0.0863929 -0.989945 -0.394478 0.30192 0.867889 0.565831 0.822995 0.0501387 -0.364875 -0.465025 0.806609 -0.870252 0.491586 0.0316912 0.972063 -0.188273 -0.140168 0.0283134 0.494167 0.868906 0.236607 0.971486 0.0152193 -0.519885 -0.77968 -0.349024 0.208294 0.47732 -0.853686 -0.248366 -0.16467 0.954567 -0.0279996 -0.120984 -0.99226 -0.916602 -0.225624 -0.330051 0.157279 0.245949 -0.956437 -0.341604 0.938337 -0.0532001 -0.149097 0.525458 0.837654 0.912406 -0.398865 -0.0917721 0.153025 -0.409017 0.899605 -0.136268 0.628784 -0.765547 -0.799926 -0.459783 -0.385641 0.949727 0.158185 -0.270179 -0.0614064 0.01883 0.997935 -0.278465 0.855946 0.435677 0.0615931 -0.142065 0.987939 0.0934072 -0.707728 0.700282 0.700895 -0.0343824 -0.712436 -0.108132 0.61938 -0.777609 -0.488127 -0.641246 -0.592061 0.806236 0.246454 0.537814 0.567938 -0.170777 -0.805159 -0.553367 -0.25352 0.793418 -0.0518915 -0.106272 0.992982 0.447443 -0.16841 -0.878312 0.369554 -0.923608 -0.101869 0.921953 0.176097 -0.344953 0.49462 0.633586 0.594912 0.811197 -0.206254 -0.547191 0.868791 0.451136 0.204156 0.0575935 0.657389 0.751347 0.737423 -0.546221 -0.397304 -0.971217 -0.232279 0.0527666 0.0249387 -0.998637 0.0458515 0.0154695 0.212284 -0.977085 -0.921113 0.331136 -0.204695 -0.676927 -0.620678 -0.395636 0.332048 0.319933 0.887348 -0.029796 -0.992504 0.118528 0.834116 0.551227 0.0200024 -0.456564 0.84496 -0.278554 0.836356 0.532415 0.13055 0.408257 -0.749313 -0.521398 0.636074 0.750474 -0.179439 0.750051 -0.0293601 0.660729 0.791536 0.11527 0.600153 -0.296257 -0.875939 0.38074 -0.177261 -0.361332 -0.915433 -0.667341 0.437157 0.602951 0.330916 -0.219793 0.917706 0.470144 -0.548079 0.69179 -0.727204 0.675359 0.122736 0.369033 0.493253 0.787729 -0.377211 -0.603959 0.702101 -0.83625 0.181932 -0.517289 -0.732993 0.318385 0.601126 0.741086 0.375047 -0.556894 -0.87708 0.477498 0.0522241 -0.682253 0.421576 -0.597332 0.689292 0.722616 -0.0519908 -0.790151 -0.351253 -0.502277 0.326902 0.597256 -0.732407 -0.168095 0.78821 -0.592004 -0.0588765 -0.805482 -0.589689 -0.471003 -0.382982 0.794658 -0.0562947 -0.961403 -0.269323 0.463035 -0.315113 -0.828434 0.428518 -0.392613 0.813774 0.51933 0.64629 -0.559111 0.765452 0.334563 -0.549683 0.434111 0.789279 0.434265 0.853712 -0.496275 0.157754 -0.209562 -0.0619836 -0.975829 -0.466647 -0.728994 -0.500808 0.997371 -0.0722395 -0.00574008 -0.707841 0.285098 0.646282 -0.955614 0.0421745 -0.291586 -0.247774 -0.242923 -0.937868 0.000383157 -0.9996 -0.0282694 -0.600424 -0.698972 0.388496 0.576099 0.253614 0.777039 0.99491 -0.0984258 0.0215981 -0.415182 0.140834 0.898771 0.0114461 0.295722 -0.955205 -0.228455 0.919957 -0.318572 -0.374352 0.132738 -0.917737 -0.145897 -0.78722 -0.599165 -0.8516 -0.484227 0.200752 -0.969537 -0.121722 -0.21256 -0.978818 -0.202863 -0.0276049 -0.119001 0.139931 -0.982984 -0.234107 -0.352093 0.906214 0.741509 -0.670402 0.0269381 0.110045 0.969128 -0.220636 0.999739 0.0197198 -0.0115274 -0.386728 0.811028 0.438947 -0.193836 0.709296 0.677737 0.924201 0.380029 0.0378164 -0.981322 0.185531 -0.0508553 -0.274362 -0.386339 0.880607 0.0544064 0.596013 -0.80113 -0.876485 -0.306578 -0.371193 0.712837 0.500322 -0.491469 -0.952745 0.103469 0.285606 -0.691907 0.660103 -0.292453 -0.418658 0.134642 0.898108 0.380789 -0.525603 -0.76075 0.580242 -0.79669 0.169128 0.949075 -0.312012 -0.0436458 -0.141083 -0.87532 -0.462505 0.194473 0.0346986 -0.980294 0.392374 0.00921844 -0.919759 0.115373 0.0183472 0.993153 -0.965166 0.130993 0.226484 0.180518 0.7851 0.592478 0.145962 0.870652 -0.469744 0.920737 0.325172 0.215654 -0.508951 0.667545 0.543463 0.317117 -0.0748566 -0.945427 -0.0957578 0.468308 -0.878361 -0.431572 0.489094 0.75798 -0.806373 0.545089 -0.229437 0.956009 0.236666 -0.173308 -0.183552 -0.770052 -0.611007 0.807882 -0.0113392 -0.589235 0.873006 -0.334594 0.354834 -0.75167 0.579977 -0.314037 -0.155286 -0.968301 -0.195653 0.481764 -0.640787 0.597743 0.0651242 -0.323255 0.944068 0.0302255 -0.998996 0.0330791 0.493639 -0.43005 0.755895 -0.927154 -0.347735 0.139516 0.578346 0.112772 -0.80796 -0.16647 0.848741 0.501923 0.173779 -0.47575 -0.862243 0.275721 -0.883115 0.379586 -0.927947 0.137708 -0.34634 0.144561 0.846701 -0.512054 0.901785 0.369801 -0.223676 -0.669301 -0.696825 -0.257821 -0.919245 -0.378619 -0.107875 -0.0600726 -0.545076 -0.836232 -0.987834 -0.1508 -0.0380008 -0.866512 -0.4217 0.267068 -0.784022 -0.308614 0.538578 -0.532404 0.842892 -0.0779693 0.344488 0.422472 -0.838359 0.520309 -0.2518 -0.816012 0.855025 -0.293974 0.427213 0.297853 -0.91426 -0.274615 -0.675467 -0.118314 0.727837 -0.642895 0.749818 0.156391 0.500015 -0.398486 0.768891 -0.131684 0.806286 0.576682 -0.994996 0.0999064 -0.000942909 0.996563 -0.0710184 0.0426483 -0.120093 0.178515 0.976581 -0.942192 0.320469 0.097848 -0.179165 0.115014 0.977073 0.529218 0.333838 0.780051 -0.529055 -0.831518 0.169347 0.541579 -0.747236 -0.385137 -0.094964 0.386734 0.917289 -0.677935 -0.693757 -0.243116 0.0106913 -0.996818 -0.0789959 -0.611626 0.294291 -0.734375 0.949293 0.245214 -0.196757 0.819676 0.0102983 0.572735 -0.251761 0.797389 0.54844 -0.1838 -0.85015 -0.49342 0.472318 -0.879044 -0.0647906 -0.132222 -0.515587 0.846574 0.373026 0.918889 -0.128434 0.0147778 -0.369983 -0.928921 0.469913 0.537266 0.700376 -0.761982 0.632391 -0.13952 0.784375 0.592544 -0.183429 0.67064 -0.628578 0.393868 -0.826244 -0.51144 0.236116 -0.532304 0.682406 -0.500973 -0.420614 0.244332 0.873719 0.506143 0.85362 0.123096 0.80184 -0.508173 -0.314345 0.606337 0.25866 0.751964 -0.52575 -0.275791 -0.80469 0.481038 -0.687625 0.543851 -0.284641 0.630059 0.722499 -0.851761 0.120852 0.509802 0.261414 0.668769 0.695996 0.216782 -0.451633 0.865467 -0.898684 -0.414815 0.142465 0.987137 0.0393063 0.154968 0.823646 -0.333212 0.458887 -0.0446489 -0.839295 0.541839 -0.565731 0.613482 -0.550989 0.489974 -0.647186 0.584017 -0.814116 -0.530123 -0.237034 0.818372 0.539003 -0.199355 -0.645605 0.317304 0.694631 0.352953 -0.907028 0.229618 -0.0656575 0.0433521 -0.9969 -0.755795 0.625958 -0.192225 0.36484 -0.551737 0.749985 -0.250406 0.820613 0.513703 0.341789 -0.574676 -0.743591 0.625504 -0.44992 0.63743 -0.851857 -0.405495 0.331531 0.494392 -0.673796 0.549158 0.646882 -0.570522 -0.506012 0.715377 0.644081 -0.270915 0.638975 -0.715505 0.282425 0.599344 0.431083 -0.674503 -0.918063 -0.268027 0.292098 -0.591738 0.640917 -0.48895 0.485674 -0.0394839 0.873248 0.112651 -0.875262 0.470347 -0.373023 -0.835778 -0.402901 -0.629406 -0.397465 -0.667735 0.188727 0.975522 -0.112865 -0.463829 0.208487 -0.861043 0.377314 -0.786733 0.488555 0.93999 -0.27781 0.198094 0.684383 -0.182291 -0.705967 -0.646192 0.698076 0.308423 0.401326 -0.0723121 0.913076 0.951002 -0.290236 0.106574 -0.294575 0.845669 -0.44505 -0.914812 -0.33919 0.219246 0.893013 0.220124 0.392521 -0.602136 0.166544 -0.78083 0.305464 -0.212874 -0.928104 0.278006 -0.542925 0.79243 -0.205663 -0.446905 0.87062 -0.876738 -0.479517 -0.0373347 0.631814 0.682941 0.36661 0.795414 0.394166 -0.46038 -0.061955 0.523345 0.849866 -0.56423 0.815137 0.131136 0.0490408 -0.944277 -0.325479 -0.599977 0.0808652 -0.79592 -0.907765 -0.197847 -0.369892 0.438047 0.6721 0.596989 -0.759547 0.63788 -0.12727 -0.806536 0.100712 0.582544 0.472042 0.418584 -0.775863 -0.504799 0.773949 -0.382336 -0.925214 -0.305893 0.224517 0.612503 0.57224 0.545328 0.876638 0.397334 0.271353 -0.482695 0.872302 -0.0780725 -0.0133352 0.98684 0.161148 -0.55178 0.594685 -0.584712 0.421643 0.898338 0.123314 -0.52275 0.811647 0.260696 0.9133 -0.00642599 -0.407238 -0.799451 -0.353322 -0.485841 -0.194021 0.743764 0.639664 0.4989 0.494253 0.711908 -0.385273 0.824748 -0.413951 -0.260899 -0.232522 -0.936945 -0.337575 -0.925613 -0.171122 0.25903 0.698596 -0.666984 -0.520937 0.449381 -0.725729 -0.873132 -0.477459 0.0983534 0.691487 0.0108291 -0.722307 -0.773068 0.60302 0.196805 -0.498055 -0.0907949 0.862379 0.275012 -0.693815 0.665574 0.495437 -0.543447 0.677648 0.302755 0.910595 0.281348 -0.653374 0.241786 -0.717386 0.738