# vtk DataFile Version 4.0
Generated by libgran
ASCII
DATASET POLYDATA
POINTS 1686 FLOAT
-31.499 1.17635 6.65125 -30.3736 0.733108 8.15385 -31.9186 0.948837 4.93175 -31.1248 2.13326 6.01271 -32.5269 0.4804 9.13007 -32.3405 1.27585 3.74788 -31.2156 0.143795 12.8649 -31.3739 -1.46089 13.5839 -31.4334 0.775429 11.7153 -31.145 -0.438592 10.4328 -30.7931 1.26097 10.3822 -29.9416 1.31743 9.38692 -31.5862 -2.67732 16.3427 -30.5725 -2.57269 15.4887 -30.4676 -1.44062 15.3399 -29.5861 -0.0254017 14.7975 -28.9251 0.302948 15.4723 -28.914 0.687202 14.0063 -32.9526 -3.49757 14.283 -35.2184 -3.5946 15.4705 -34.017 -3.36195 14.9504 -34.4483 -3.32799 16.6449 -35.9621 -4.07855 14.4737 -33.9812 -3.58269 17.7336 -34.0544 -2.14444 17.9839 -34.3383 -1.58815 19.0159 -33.0574 -1.62416 19.3437 -33.0549 -2.97734 22.0754 -33.7634 -1.79341 22.7717 -33.1299 -1.99812 21.0431 -33.3102 -4.26341 22.2966 -34.6083 -5.30494 21.5828 -33.4424 -1.89178 24.4217 -32.4136 -2.68935 19.825 -33.9948 -5.48519 19.5214 -34.9327 -6.35931 18.8921 -32.8143 -6.0654 19.327 -31.767 -6.42642 19.2777 -31.1653 -5.7624 20.8502 -31.8812 -5.40622 22.4007 -30.5045 -4.56252 21.4021 -34.5288 -7.84203 19.5365 -26.9006 -11.7038 21.5216 -27.6959 -10.9178 20.8022 -29.0495 -11.6134 20.4007 -26.6077 -11.5281 23.4969 -28.0221 -11.451 23.8054 -30.5797 -12.3399 20.1777 -31.883 -9.07333 18.2752 -30.7154 -8.46365 17.7886 -31.5721 -10.3573 18.4268 -33.0837 -10.0437 18.7535 -31.0502 -11.6823 19.1842 -33.8809 -9.25692 19.8323 -29.765 -9.52022 16.5983 -29.7004 -10.3922 15.1432 -29.0604 -12.7305 15.2022 -28.5398 -12.2285 14.0861 -29.7033 -11.4054 14.2692 -27.924 -12.5488 16.4921 -26.6664 -11.8799 14.122 -26.4075 -12.5817 17.1102 -26.3794 -13.7069 16.9813 -25.4096 -9.21717 11.3292 -26.3874 -9.54035 10.8116 -26.7858 -8.37507 11.9545 -24.1901 -9.41019 11.8227 -23.9047 -9.58959 10.2014 -24.278 -9.80206 13.6434 -25.2118 -10.8317 14.4905 -36.2867 14.4681 2.42343 -36.0543 13.9258 0.52886 -35.8142 12.9619 0.413091 -35.6443 15.1432 3.71803 -35.2666 15.0962 4.74721 -34.3994 15.5626 4.92193 -34.8139 14.9947 5.63309 -38.8993 12.8074 -0.581248 -39.6832 13.3747 -1.49219 -38.0875 14.308 -0.855697 -38.2959 12.5639 0.320126 -38.8382 11.0217 -0.395353 -39.4142 9.84041 -0.0819004 -40.0296 8.60187 0.471226 -44.0796 8.6622 -1.06995 -43.9291 7.83911 -1.89317 -44.6817 9.98527 -1.94495 -44.0187 10.1 0.317453 -40.8323 7.96073 0.170306 -39.5879 7.12524 -0.425613 -39.6642 7.41265 -1.71802 -39.1398 6.53045 -2.22111 -39.267 5.70411 -0.877927 -39.534 8.9271 -2.60511 -40.9326 7.78968 -2.52156 -39.3952 9.35009 -3.86817 -39.0828 4.28832 -1.37666 -39.7735 4.1462 0.0824107 -39.0695 6.01024 -8.71823 -38.0707 5.85953 -9.58295 -38.9462 4.29695 -9.48929 -39.5161 7.5323 -10.4131 -40.1029 6.91046 -11.0555 -40.7072 7.60524 -9.39561 -41.0971 6.42481 -11.8992 -41.294 6.9834 -10.0379 -39.7714 2.69273 -9.39418 -40.6995 7.89719 -7.24476 -41.2173 7.84316 -8.47983 -40.9967 7.82784 -6.05614 -41.529 7.5656 -5.101 -42.3863 7.12544 -4.52937 -41.654 7.02554 -3.76065 -43.5118 8.38491 -4.9327 -42.3384 8.21941 -2.70297 -36.9273 2.53673 -11.4874 -35.5437 2.88986 -12.4283 -36.171 1.54498 -11.1374 -37.4088 3.7262 -11.1388 -37.8395 4.92099 -11.576 -39.462 4.65602 -11.7134 -36.578 -0.0642829 -10.8002 -40.4093 4.11073 -12.3884 -39.4102 -0.801918 -8.43028 -38.8589 0.431738 -8.51305 -40.0457 1.03276 -8.84881 -37.7464 1.65117 -8.73698 -26.0634 12.8045 19.4655 -26.4629 13.8528 20.1793 -24.8829 13.7671 19.9302 -27.3584 12.2541 18.2411 -29.214 13.0394 19.2447 -30.0115 10.691 17.555 -29.818 12.1589 16.4116 -30.796 9.69038 17.3996 -30.4503 8.9202 18.0805 -29.0174 11.884 15.8791 -32.4984 9.47708 17.428 -31.2406 9.70863 15.9985 -33.228 9.38414 18.9465 -26.6583 4.49554 12.8135 -26.4452 3.37865 12.8078 -26.9992 5.73466 13.1547 -28.5054 4.9635 13.3026 -27.8079 2.68872 13.7472 -27.6643 2.19268 12.3365 -28.1153 2.10286 15.1693 -27.3897 1.34693 11.2131 -27.1748 1.49363 10.1711 -30.06 9.15334 15.2179 -31.1261 9.11569 14.4241 -28.7234 9.13915 14.8129 -30.9901 7.56564 13.5528 -32.1513 8.91392 13.2454 -31.4487 6.29628 13.535 -30.0078 5.85694 13.4611 -32.7948 6.20231 5.23914 -33.6228 5.59208 4.39644 -32.5865 7.08849 5.99407 -31.9388 5.52194 6.54817 -35.2854 4.64829 4.69317 -33.3 3.52289 6.2081 -36.432 4.94069 4.02611 -35.9898 5.03213 2.58018 -38.8699 3.2203 2.26162 -37.2754 3.05162 2.59568 -40.0119 3.52136 1.65311 -39.9484 3.01224 -0.110833 -36.3144 4.6481 1.67024 -36.7585 2.43145 3.91872 -32.2651 5.76947 11.2556 -31.6217 8.08082 10.252 -33.0603 8.33811 11.2163 -33.3658 8.68905 12.221 -34.1291 7.62525 12.5959 -32.5194 10.2875 12.4789 -34.5762 6.3165 13.2087 -33.9368 2.99377 8.76338 -33.6439 3.01089 10.0602 -32.8353 3.16662 7.11959 -33.2144 3.469 11.3084 -26.0283 23.3344 27.8529 -26.5573 22.0833 28.3229 -26.1062 22.8425 29.4127 -25.7415 23.516 26.5672 -26.0245 24.9929 27.2165 -26.6912 26.2297 27.3098 -23.2179 23.3338 27.8248 -22.9194 23.4904 30.1457 -23.7372 24.1454 31.318 -22.6399 23.2683 28.8649 -22.2087 22.9442 27.8941 -23.8269 25.2115 28.4203 -23.7206 24.2454 32.551 -25.4894 27.3691 32.7599 -25.0701 28.3028 33.6115 -26.0327 29.2339 32.8946 -25.8512 26.7702 31.9 -24.9451 26.0063 31.6356 -23.4601 28.7406 34.6503 -25.7185 25.2066 30.9364 -21.017 25.5389 34.3831 -21.2861 24.2438 34.5193 -20.8122 26.6205 34.4278 -19.7634 27.1553 35.2773 -20.7571 28.0581 34.8934 -18.2475 26.7159 35.9959 -18.322 27.978 35.6695 -21.7029 29.0546 34.8008 -19.7637 29.1156 34.4229 -28.1419 23.8163 32.616 -28.4492 26.0771 33.0457 -30.6472 25.1073 35.0482 -30.594 24.0031 34.1536 -30.2016 23.3632 32.4059 -26.8565 23.4706 32.5255 -32.0624 21.3227 30.3857 -32.6262 22.1796 31.8525 -30.8158 21.0098 30.0404 -29.9742 20.6403 29.6465 -32.6834 23.1911 33.1417 -33.6042 22.8456 32.9606 -35.3358 23.4751 32.7479 -36.06 23.4923 31.4307 -35.7189 22.6104 30.9376 -36.9183 24.9735 30.6566 -37.4573 24.7673 32.2782 -37.831 25.5315 31.2953 -36.8174 22.7347 32.7365 -37.4678 25.7202 33.8994 -37.5121 26.8134 32.0315 -41.3593 26.5753 35.1767 -40.6926 27.6409 34.7431 -39.7933 26.8096 34.2529 -38.3952 26.6739 33.9963 -41.236 26.9519 33.0113 -37.2552 26.8027 33.6615 -37.2842 10.5736 21.2108 -37.6684 9.61188 22.044 -38.7777 11.0473 21.7615 -35.8704 10.1139 20.4968 -36.7283 11.6118 20.3394 -34.7535 8.62467 20.3832 -33.8108 7.71402 19.7575 -34.3319 7.04153 18.9922 -32.6644 7.05344 19.1547 -34.9166 6.04861 18.3287 -35.2051 5.70471 19.6926 -30.9816 5.19716 18.8789 -30.4351 6.14198 18.5768 -41.6934 12.2993 20.3031 -42.5176 11.7463 21.1879 -43.854 11.6198 20.2701 -41.6772 13.7792 20.5196 -42.9123 13.7502 19.7214 -40.4055 9.51086 18.8057 -40.3297 11.1089 19.4537 -40.0166 9.06542 19.7608 -39.5912 8.57036 20.5184 -37.8135 8.53668 19.9772 -38.9232 7.77343 21.1493 -30.1898 16.3308 21.907 -31.3387 16.4684 22.562 -30.256 16.063 23.7849 -29.1931 15.6843 21.2527 -30.0747 15.5425 20.1868 -32.2758 17.3225 22.7763 -31.8096 18.2561 24.1931 -30.7706 18.841 25.7195 -34.2501 11.7663 19.1047 -33.4191 11.3634 20.0303 -32.4482 12.2092 19.2257 -35.0184 12.7969 18.7641 -36.1605 12.1229 19.4472 -31.3 12.1365 20.057 -30.9899 13.0872 20.0642 -29.5866 20.1269 26.2128 -29.7047 18.5705 25.9396 -30.4818 20.2466 28.3588 -31.8236 20.3733 27.2153 -29.5469 17.0207 26.0552 -29.0282 15.8057 26.9089 -31.4144 20.6656 24.8823 -32.4681 20.0837 25.8486 -31.2102 21.9646 25.0799 -32.6903 22.7835 24.742 -34.3114 22.6622 24.8208 -34.2053 24.0611 23.1715 -5.73664 23.5676 37.7181 -4.7439 23.504 37.8202 -6.99442 23.1332 37.7889 -5.23868 22.8079 37.3 -7.74706 24.2639 38.8749 -8.57643 22.8285 38.2889 -8.60489 23.912 38.5003 -8.59454 24.7809 38.9952 -4.52559 21.7906 37.5128 -3.45652 22.4458 36.8656 -4.13486 20.0961 37.5798 -9.49061 21.9761 37.2443 -5.17865 18.3141 38.925 -5.36208 19.1845 37.6707 -5.82575 17.0414 39.148 -6.12139 16.0072 39.4625 -3.57706 19.4731 38.5227 -0.806013 23.7298 37.8007 -1.95525 23.8514 37.143 -2.1274 22.6302 37.0188 0.23652 25.2849 37.6657 -1.98726 25.4984 36.8261 -2.29945 21.3907 36.87 -2.15132 27.2585 37.2343 0.543008 29.6693 37.4944 1.41983 28.4536 38.1687 -2.25873 28.9152 36.9494 2.37494 28.0639 37.3044 -2.96666 28.2166 38.3368 -20.3441 31.0944 42.1358 -19.1561 30.5833 41.8267 -20.4283 31.0483 43.8354 -21.6346 30.6043 42.4096 -17.97 29.3179 44.2197 -18.3515 29.6608 45.7809 -17.4249 28.6932 42.6977 -15.1316 27.8094 40.7598 -15.9131 27.6339 41.821 -14.2309 26.4365 40.5556 -16.9672 27.5375 42.0199 -16.8405 26.3739 42.9522 -15.9487 25.8877 42.3544 -13.0439 26.3779 41.3399 -13.8493 25.8901 41.9843 -16.6958 25.491 44.2697 -11.0975 22.8215 41.9131 -12.3141 23.173 42.3254 -10.9612 23.3176 41.0556 -10.1752 22.9405 41.5455 -12.5587 24.1119 43.4149 -12.9712 23.0668 44.1983 -13.1794 25.5725 43.2804 -10.1713 24.4261 40.7447 -14.7856 25.5168 42.7218 -9.87934 26.524 38.6946 -9.29105 25.3759 38.3423 -10.4663 26.0704 40.0633 -10.5421 27.0463 40.2682 -11.4499 26.6372 38.7609 -10.3795 26.3915 41.0064 -19.216 34.393 39.5483 -19.3043 35.3773 37.9186 -18.2259 34.7579 40.3582 -18.053 36.3484 40.1598 -17.7748 36.0719 41.0796 -18.2761 36.9266 40.9446 -18.2263 38.055 40.4329 -19.1907 35.0425 36.8652 -19.9177 36.463 37.4265 -17.2127 37.2655 41.7956 -18.2301 39.8341 44.4143 -19.9458 39.6846 43.7774 -20.0874 40.1946 44.8157 -20.217 39.0098 42.3695 -21.5882 39.1062 43.5322 -18.8259 38.7897 41.1956 -17.1629 38.394 41.2839 -19.9207 41.8205 46.3791 -18.6797 42.4006 45.1939 -19.458 41.1969 47.4585 -20.6536 40.7618 46.1306 -18.5535 42.553 43.9431 -17.3644 43.1567 44.8417 -19.9732 38.7018 48.2752 -21.1713 37.508 51.1662 -20.3888 38.5607 50.9482 -21.4206 39.3715 51.6412 -19.4009 38.359 49.7615 -17.7793 39.1092 49.805 -22.2418 40.2305 51.4614 -16.4 27.5631 38.4891 -15.7126 27.2842 37.3857 -15.83 28.6714 37.2318 -15.4987 25.7335 37.3461 -16.9312 29.0308 36.2597 -14.4426 25.1593 38.4877 -12.9528 25.9528 38.62 -18.3284 29.0173 35.2044 -18.5416 30.178 34.0455 -17.8662 29.4439 33.9745 -17.6315 30.3697 33.6782 -18.784 31.243 35.76 -18.4268 30.6533 36.7929 -21.4404 29.7987 36.7811 -21.8593 31.0408 35.7592 -21.4581 33.1056 41.3509 -23.1008 32.5185 41.4369 -20.8834 32.2441 40.5169 -21.3118 32.20
[...]
POINT_DATA 1686
FIELD FieldData 1
normals 3 1686 double
-0.352314 0.314125 -0.88159 0.773098 -0.129116 0.621007 -0.0672971 -0.541637 -0.837914 0.726466 0.642787 0.243047 -0.416505 0.842007 0.342853 -0.35464 0.868647 -0.345952 -0.347887 0.915996 -0.199814 -0.506129 -0.688684 0.51918 0.13009 -0.284362 -0.94985 0.158381 -0.929659 -0.332642 0.510293 0.769899 -0.383219 0.341154 -0.713436 -0.612064 -0.450437 -0.796773 0.402815 0.563337 -0.69214 -0.451213 0.668213 0.439922 -0.599966 0.213251 0.9753 0.0575693 -0.447736 0.64695 -0.617242 0.458825 -0.262696 -0.848805 -0.78186 0.599113 -0.172507 -0.918942 0.230842 -0.319776 0.282461 0.463492 -0.839875 -0.148886 0.497453 0.854619 0.175242 -0.714782 -0.677035 0.615979 -0.752154 0.234167 0.542756 0.686095 0.484447 -0.826629 -0.129804 0.547573 0.454271 -0.165807 0.875298 0.601777 -0.771059 0.208167 -0.106691 0.412865 0.904522 0.526781 0.208157 -0.824119 -0.857082 -0.515015 0.013031 -0.441027 -0.526518 -0.726825 0.427691 -0.511229 0.74547 0.189505 -0.89939 -0.393936 0.791363 -0.114673 0.600495 -0.146511 -0.988791 -0.0287503 0.389118 -0.465539 -0.794897 0.658157 0.104517 0.745591 -0.0563796 0.559503 0.826908 -0.659589 -0.203319 0.723605 0.717152 0.64038 -0.274967 0.550408 -0.49393 0.673116 -0.211469 0.974863 0.0701661 -0.583844 -0.188823 -0.789603 -0.769747 -0.506825 0.388095 0.841617 0.411747 0.349494 -0.57274 0.488871 0.658008 -0.760492 -0.219655 -0.611068 -0.500845 -0.836222 -0.223354 0.666782 -0.226549 -0.709984 0.811783 -0.447709 0.374921 -0.699821 -0.134164 0.701606 -0.289947 -0.8773 0.382459 -0.0974266 0.920959 0.377283 0.283572 -0.830016 -0.480271 -0.218948 -0.0420015 -0.974832 0.426765 -0.353939 0.832225 0.947377 0.148013 -0.283848 -0.216088 0.971157 -0.100795 0.709648 0.535648 0.457691 0.926032 0.200661 0.319686 0.806846 -0.568567 0.160407 0.77871 0.556666 0.289368 0.902078 0.0167191 -0.43125 -0.0757211 -0.306463 -0.948866 -0.474069 0.858826 0.194105 0.317409 -0.20974 0.924803 0.602823 -0.389135 -0.696548 -0.405288 -0.182126 0.895864 -0.528532 -0.847509 -0.0488076 -0.149828 0.154382 0.976585 0.0825928 -0.387917 -0.917986 -0.157457 0.575895 -0.802217 0.792235 0.520798 0.318015 -0.414514 -0.567827 0.711161 0.452666 -0.101489 0.885886 0.86718 0.466338 0.174722 -0.0884065 -0.853108 0.51419 -0.872287 -0.285834 -0.396754 0.723392 0.647478 0.239741 0.691749 0.609567 0.387184 0.149491 -0.932671 -0.328295 -0.725511 -0.248582 0.641748 0.110121 -0.989959 -0.088622 -0.64182 0.765484 -0.0458332 -0.491349 -0.0576057 -0.869056 0.0397022 0.557582 -0.829172 -0.59335 0.800493 -0.084536 0.91283 -0.348813 0.212298 -0.331566 0.486672 0.808217 -0.407874 0.774078 -0.484191 0.116594 -0.108121 -0.987277 -0.0106001 -0.934463 0.355902 0.538075 0.740368 -0.402902 -0.860447 -0.39705 -0.319348 -0.39925 -0.317375 -0.860159 0.194746 -0.481322 -0.854636 -0.495956 -0.623446 0.604435 -0.393882 0.814832 0.42533 0.604877 0.664123 -0.439391 -0.270626 -0.898462 -0.345727 -0.412208 0.603281 0.682742 -0.99901 -0.0185567 0.0404206 -0.778877 -0.530346 0.334789 0.00477898 -0.467095 -0.884194 -0.19207 0.0914912 0.977107 -0.554586 -0.705757 0.440842 0.249068 -0.714236 0.654089 -0.268739 -0.768268 -0.580985 -0.546252 0.64489 0.534534 0.0139552 -0.907137 0.420604 -0.871275 0.466982 0.151022 -0.138993 0.367084 0.919745 -0.254281 0.792486 -0.554353 -0.545352 0.826779 0.13794 -0.898202 0.280484 0.338469 0.485348 0.63361 -0.602474 -0.141948 -0.711267 0.68844 0.416712 0.908982 0.0101094 -0.847476 0.285809 -0.447322 -0.774965 -0.550775 0.309962 -0.264997 -0.897994 -0.35126 -0.17237 0.00548769 -0.985017 -0.35521 0.880467 -0.314012 0.906522 0.353189 0.231246 -0.280278 0.954211 -0.10452 0.206003 0.866241 -0.455181 -0.393927 -0.44631 -0.80351 -0.793472 0.601959 -0.089714 0.786549 0.516285 -0.338808 -0.901106 -0.104106 -0.420916 -0.659598 0.102935 -0.744537 0.080578 -0.936237 0.342006 0.27406 0.531606 -0.801428 -0.86508 -0.0644132 -0.497482 -0.51943 -0.834592 0.183439 -0.526524 0.806509 -0.268914 -0.837414 -0.148891 0.525898 0.420404 0.0826568 -0.903564 0.107885 0.0559468 0.992588 -0.885259 0.408778 0.221849 -0.672202 -0.708113 0.216148 0.544332 0.83034 0.119328 -0.961826 0.0591807 0.267188 -0.690401 0.0181802 0.723198 -0.546829 -0.477855 -0.687483 0.382921 -0.604035 0.698937 0.82137 -0.367894 -0.435895 -0.606437 0.51459 -0.606161 0.760208 -0.637941 0.122947 -0.305841 -0.675598 -0.670842 0.576366 0.623747 -0.52796 0.441785 -0.874448 -0.200418 -0.71943 0.473827 -0.507847 -0.900391 -0.394915 0.182588 0.54056 -0.834257 0.108668 0.121354 -0.0820914 0.989209 -0.706553 -0.692329 0.146503 0.0869823 0.968269 -0.234283 0.734688 -0.598288 0.319821 -0.956137 -0.251459 0.150232 0.984225 -0.157579 0.0804412 -0.190385 0.543859 -0.817295 0.632566 -0.452415 -0.628634 -0.884426 0.299676 0.357751 0.710096 0.130996 0.691812 -0.257554 0.00139005 -0.966263 0.321071 -0.51051 -0.79768 0.957177 -0.0683831 0.281309 -0.193165 -0.751162 0.631224 0.245491 -0.698233 0.672462 -0.638189 0.605047 0.476059 -0.800443 -0.347748 0.488224 0.494996 0.698688 0.516541 -0.268356 -0.365122 0.891443 0.351375 0.899782 -0.258706 -0.178694 -0.943624 -0.278643 0.582042 -0.0258419 -0.812748 0.874958 -0.00872526 0.48412 0.519501 0.198691 -0.831048 -0.445416 0.466838 0.763981 -0.286384 0.70164 -0.652446 -0.815373 -0.549459 -0.18238 -0.36425 0.209735 0.907377 0.573184 -0.520118 -0.633197 0.290185 0.956835 0.0161298 -0.956923 0.279911 0.0771293 0.778432 0.559149 0.285301 0.0791375 -0.846743 -0.526084 -0.73869 -0.191814 0.646177 0.200398 0.624625 -0.754775 0.230741 -0.948745 -0.215967 -0.33433 -0.444276 -0.831169 0.755264 0.29189 0.586836 0.385548 -0.885238 -0.260205 0.804871 0.0484082 0.591472 -0.157751 0.979469 -0.125517 -0.74733 0.286252 -0.599632 0.158793 -0.477606 -0.864105 0.80517 0.389413 0.44728 -0.932215 -0.32211 0.164984 0.15572 0.5651 -0.810193 -0.113413 -0.729978 -0.673995 0.049021 0.516495 0.854886 0.999817 0.018351 -0.0054023 0.006118 0.921065 -0.389361 0.516072 -0.457775 0.723955 0.441548 0.804337 0.397589 -0.951957 0.0754522 0.296791 0.987312 0.136516 -0.0811114 0.503989 -0.519872 -0.689731 0.849419 -0.207813 -0.485078 0.0498171 -0.993803 0.0993627 0.00338753 -0.110451 -0.993876 0.388991 -0.52946 -0.753895 0.781384 0.174177 0.59925 0.37789 -0.787629 -0.486662 -0.185918 0.0692264 0.980123 0.868711 0.474734 0.141309 -0.0271486 -0.844281 -0.535213 0.128716 0.942304 0.309023 -0.792087 0.596839 0.127988 -0.939586 0.0326529 -0.340753 -0.215424 0.0154799 0.976398 0.125687 -0.8664 0.483274 -0.645236 -0.405507 0.647483 0.106221 0.199383 0.974148 -0.267406 0.963544 -0.00875129 -0.542011 -0.773112 0.329426 -0.116711 0.753444 0.647071 0.586267 0.318344 0.744948 -0.97851 -0.169761 0.117044 -0.311813 0.895882 -0.316494 0.587402 0.0645882 -0.806714 0.8107 -0.200308 0.550129 -0.442677 -0.797033 0.410824 0.329352 0.329064 -0.885011 0.906743 0.296314 -0.300024 0.522476 -0.665414 0.533145 -0.586772 0.769992 0.25062 0.506965 -0.756016 -0.414037 -0.350847 0.741901 -0.571392 0.61001 -0.733214 0.300475 0.332691 -0.177444 -0.926191 -0.853836 -0.495039 0.160935 0.813635 -0.483129 0.323395 0.269106 -0.49788 -0.824438 -0.019388 -0.841785 0.539465 -0.0136813 0.392596 -0.919609 0.560189 0.55223 0.617439 0.04205 -0.0661129 0.996926 -0.86625 -0.486868 -0.112117 -0.470166 0.360358 -0.805659 -0.984028 0.0668047 0.165001 -0.250979 -0.0958973 -0.963231 0.959742 0.0219319 0.280027 0.013291 -0.0977689 0.99512 -0.57082 -0.467369 0.675078 0.996199 -0.0276923 0.0825935 0.781541 -0.00598477 -0.623825 -0.328147 -0.769232 0.548272 0.20017 -0.131475 -0.9709 -0.948789 0.00618193 -0.315851 0.133964 -0.399276 0.906991 0.796536 -0.515058 0.316615 -0.0851056 -0.65678 -0.749264 0.011733 0.847839 0.530124 0.454461 0.0858068 0.886624 0.584507 0.49904 0.639774 -0.991819 0.125798 0.0217017 -0.160814 -0.277102 0.947287 0.81008 0.568699 0.142662 0.223514 0.904837 -0.362368 -0.918592 0.230819 0.320797 0.338127 -0.641412 0.688665 0.648203 0.309273 0.695833 0.599475 0.786889 -0.146408 0.481461 -0.769484 -0.419631 0.480428 -0.450635 0.752408 -0.861435 -0.323965 -0.391121 -0.323665 -0.780277 0.535172 0.842298 -0.434758 0.318622 0.836667 0.547633 0.00926034 -0.216977 -0.0343364 0.975573 -0.632451 0.751351 0.188353 -0.847624 0.0675663 -0.526278 -0.773453 -0.188883 0.605057 -0.466147 -0.711212 -0.526198 -0.494787 -0.696107 -0.520213 0.497954 -0.759732 -0.41815 -0.762995 0.261756 0.591035 0.992741 -0.0636258 0.102062 0.010353 0.86888 0.494914 -0.819019 -0.566493 -0.0910684 -0.847478 0.517013 0.120328 -0.857831 -0.351867 -0.374587 -0.279649 -0.953692 0.110764 0.789421 -0.298464 -0.536408 0.670378 -0.740729 -0.0437481 -0.0951581 -0.285881 -0.953529 0.28832 -0.921236 0.261143 0.104893 -0.0508309 -0.993184 -0.935425 -0.351452 -0.0382244 0.639789 -0.682787 0.352804 -0.112577 0.117651 0.986653 0.781698 0.616797 0.0922511 -0.367539 0.738359 -0.565457 -0.539694 -0.482855 -0.689624 0.260836 0.938242 -0.227302 0.335529 0.908646 0.248562 0.367651 -0.756591 0.540743 -0.499586 0.851428 0.159642 -0.435462 0.333049 -0.836332 0.441363 -0.882582 -0.162012 -0.392171 -0.805316 0.444599 0.513749 0.492866 -0.702243 -0.315761 0.10676 0.942814 -0.563451 -0.0773836 0.822517 0.624543 -0.588466 0.513472 0.479293 0.0312937 0.877097 -0.727034 -0.412735 -0.5487 0.742659 -0.196518 -0.640186 0.361088 0.146367 0.920974 -0.197557 -0.428247 -0.881802 0.38261 -0.648182 -0.658384 -0.398931 -0.82374 0.402874 0.518086 -0.724748 0.454232 -0.6552 0.727393 -0.20399 -0.528496 -0.436231 0.728281 0.363332 -0.922481 0.130454 0.668887 0.666093 0.330017 -0.136572 0.178336 0.974446 0.67323 -0.446699 0.589255 0.786021 -0.377033 0.489916 -0.430523 -0.0256085 0.902216 0.92233 0.119 -0.367622 0.136309 0.496033 -0.857538 0.185887 0.964565 0.187247 -0.226613 -0.0805038 0.970652 -0.806553 0.495977 -0.321681 -0.132406 0.989569 0.0567572 -0.799722 -0.551626 -0.236967 -0.749602 0.201227 0.630559 -0.161316 -0.946854 0.27829 0.162625 -0.654745 0.738147 0.0867966 0.321093 0.943062 -0.820913 -0.0880093 -0.56423 -0.0758279 0.975838 0.204915 0.315835 -0.3709 0.873317 0.22746 0.613341 -0.756356 0.674203 0.73582 -0.0633983 -0.501293 0.854675 -0.135045 -0.223092 0.578175 0.784821 0.2782 -0.276498 0.919866 0.328038 0.851934 0.408165 -0.113811 -0.948061 -0.29703 -0.840862 0.472387 0.264198 0.785186 0.615415 -0.068897 0.981011 -0.187833 0.0483317 -0.734711 -0.337345 -0.588556 -0.876282 0.172712 0.449779 0.463485 -0.337451 -0.819334 -0.907757 -0.241086 0.343301 0.927645 0.117321 -0.354558 0.735349 -0.513016 0.442804 -0.422803 -0.664254 0.616444 0.818179 -0.0841105 -0.568778 0.885454 0.0406727 0.462944 -0.310069 -0.394428 -0.865034 -0.692005 0.236491 -0.682056 0.497143 0.840207 0.216568 0.588503 -0.615391 0.524365 0.189352 -0.981886 -0.00672135 0.971847 0.0708355 -0.224714 -0.059874 0.881592 0.4682 0.0161215 -0.27258 -0.961998 -0.356615 0.522253 -0.774647 -0.761367 -0.0225911 -0.647927 0.721924 0.500503 -0.477831 -0.0345087 -0.779407 -0.625566 -0.151891 0.607798 -0.77943 0.248381 -0.771293 0.586015 -0.949304 -0.248408 -0.192653 0.807792 0.197071 0.55555 0.681999 0.596422 -0.423271 -0.447935 0.234891 -0.862659 0.234744 0.925799 -0.296295 0.910125 0.191755 -0.367291 0.67538 -0.734044 -0.0709958 0.850162 0.109442 0.515022 -0.493023 -0.699138 0.517817 -0.709288 0.651644 -0.268832 0.290318 0.590414 -0.753078 0.945354 -0.0929634 -0.312512 -0.697337 -0.68001 -0.226513 -0.370653 -0.768508 -0.521548 -0.0578177 0.726006 -0.685254 -0.486321 -0.851768 0.194892 -0.997374 -0.0617638 0.0378245 -0.719187 0.694433 -0.0230836 -0.479003 -0.21026 -0.85226 -0.107662 -0.901433 0.419318 -0.438046 -0.197768 0.876928 0.256413 -0.961661 -0.0972661 0.625856 0.133267 -0.768468 -0.0749504 -0.57875 -0.812053 -0.700807 -0.712018 -0.0435864 -0.630244 0.776295 0.0125956 -0.688957 -0.43451 0.58012 -0.0236566 0.974915 0.221315 0.444507 0.366245 0.817483 0.250622 -0.612438 0.749739 -0.193884 -0.978683 -0.067744 0.24495 -0.967237 -0.0667202 0.928702 0.360146 -0.0883594 0.987363 -0.124088 -0.0985758 0.235819 0.97116 -0.0351723 0.306206 0.123625 0.943904 0.603241 -0.00293297 -0.797553 0.783142 0.0539153 0.619502 -0.0945777 0.0913102 -0.991321 -0.417296 0.2875 0.862095 0.547322 0.834386 0.0650969 -0.368579 -0.451004 0.812862 -0.862166 0.505706 0.0305014 0.967072 -0.209027 -0.14519 0.0312551 0.486737 0.872989 0.252567 0.967272 0.0243977 -0.538197 -0.768945 -0.34506 0.221312 0.480536 -0.848591 -0.256808 -0.168072 0.951736 -0.0240161 -0.112644 -0.993345 -0.918472 -0.204805 -0.338325 0.168667 0.251487 -0.953051 -0.323809 0.945068 -0.0446535 -0.145265 0.518496 0.842651 0.903787 -0.418171 -0.0911138 0.15196 -0.415023 0.897031 -0.135491 0.623742 -0.769797 -0.797154 -0.464554 -0.385662 0.950185 0.159476 -0.267798 -0.0649785 0.0246472 0.997582 -0.284028 0.85727 0.429437 0.0585466 -0.135926 0.988988 0.0931164 -0.703076 0.704992 0.694479 -0.0461324 -0.718033 -0.118091 0.614413 -0.780097 -0.457975 -0.658066 -0.597669 0.791735 0.272322 0.546806 0.585059 -0.153453 -0.79634 -0.55636 -0.270154 0.785799 -0.0567849 -0.115014 0.991739 0.427001 -0.16832 -0.888447 0.384401 -0.917363 -0.103352 0.922524 0.163706 -0.3495 0.506081 0.626712 0.592549 0.8049 -0.216094 -0.552666 0.876604 0.437211 0.201026 0.0717047 0.653305 0.753692 0.726882 -0.555542 -0.403752 -0.974337 -0.218479 0.0541716 0.0107882 -0.998941 0.0447303 0.0182611 0.206446 -0.978287 -0.916464 0.342701 -0.20652 -0.67363 -0.625128 -0.394256 0.353334 0.314089 0.881194 -0.0424784 -0.992055 0.118419 0.821298 0.568966 0.0418091 -0.467679 0.83573 -0.287805 0.821671 0.549129 0.152691 0.435511 -0.736346 -0.517808 0.62403 0.764694 -0.160718 0.734662 -0.0159443 0.678246 0.775944 0.127963 0.617686 -0.287367 -0.883143 0.37078 -0.150311 -0.360732 -0.920478 -0.689362 0.418032 0.591632 0.316153 -0.219396 0.922991 0.467282 -0.542883 0.697801 -0.742681 0.66063 0.109511 0.342208 0.496889 0.797493 -0.380542 -0.614171 0.691362 -0.828211 0.167957 -0.534656 -0.751906 0.301546 0.586266 0.745437 0.392604 -0.53869 -0.88709 0.46019 0.0360016 -0.677216 0.410881 -0.610374 0.676039 0.736074 -0.0341456 -0.772091 -0.364322 -0.520715 0.329378 0.608698 -0.721801 -0.170501 0.787362 -0.592444 -0.0280229 -0.801935 -0.596754 -0.47934 -0.399618 0.781369 -0.028975 -0.96027 -0.277565 0.488164 -0.298346 -0.820174 0.419553 -0.389513 0.819912 0.517139 0.661923 -0.542609 0.769843 0.355624 -0.529974 0.407104 0.795177 0.449398 0.860307 -0.479027 0.17437 -0.187271 -0.0625488 -0.980315 -0.437996 -0.734143 -0.518839 0.998515 -0.0509755 0.0191994 -0.727323 0.267797 0.63189 -0.949822 0.0234063 -0.311915 -0.222498 -0.244391 -0.943805 0.0228541 -0.999088 -0.0360557 -0.594743 -0.715246 0.367021 0.550426 0.258985 0.793699 0.995946 -0.0771089 0.0463179 -0.44094 0.123734 0.888967 0.0293132 0.303966 -0.952232 -0.242458 0.916797 -0.317329 -0.35323 0.131354 -0.926269 -0.110772 -0.785444 -0.60894 -0.845675 -0.504292 0.174708 -0.960341 -0.143421 -0.239113 -0.973131 -0.223658 -0.0547005 -0.0966638 0.14617 -0.984525 -0.249644 -0.365196 0.896833 0.755051 -0.654413 0.0405147 0.0944756 0.973231 -0.209514 0.999044 0.0413581 0.0141533 -0.415286 0.798668 0.435508 -0.189835 0.711557 0.676498 0.929524 0.365654 0.0477625 -0.97776 0.200733 -0.060755 -0.290503 -0.382857 0.876943 0.0722677 0.598359 -0.797962 -0.876942 -0.291618 -0.38201 0.725879 0.49056 -0.482131 -0.955817 0.11227 0.271677 -0.67666 0.673948 -0.296522 -0.42249 0.141657 0.895229 0.376967 -0.53103 -0.758883 0.564284 -0.807347 0.172554 0.942795 -0.331443 -0.0358247 -0.153229 -0.874836 -0.459547 0.200761 0.0270628 -0.979266 0.396554 -0.0087688 -0.91797 0.10008 0.00876121 0.994941 -0.966889 0.141184 0.212586 0.180356 0.777992 0.601831 0.163791 0.872186 -0.460938 0.920898 0.316347 0.227752 -0.509605 0.66318 0.548175 0.324606 -0.0640086 -0.943681 -0.0856577 0.480639 -0.872725 -0.435349 0.481243 0.760839 -0.812483 0.537535 -0.225671 0.958896 0.232916 -0.162074 -0.174867 -0.770823 -0.612579 0.807571 -0.000527091 -0.58977 0.877123 -0.325056 0.353545 -0.757997 0.572222 -0.313055 -0.14751 -0.970315 -0.191652 0.490965 -0.634398 0.59707 0.0695517 -0.324529 0.943315 0.0384146 -0.998634 0.0354116 0.50042 -0.424172 0.754757 -0.922966 -0.356937 0.143978 0.573925 0.116954 -0.810513 -0.173181 0.848073 0.50078 0.175685 -0.476768 -0.861294 0.288464 -0.878192 0.381533 -0.93119 0.124856 -0.342485 0.131023 0.847896 -0.513717 0.895793 0.380765 -0.229287 -0.662913 -0.70435 -0.253846 -0.915716 -0.388013 -0.104448 -0.0567448 -0.54814 -0.834459 -0.986384 -0.160676 -0.0350784 -0.861297 -0.429845 0.270925 -0.779737 -0.31392 0.541724 -0.540851 0.83726 -0.0804696 0.338432 0.422119 -0.840999 0.520932 -0.250285 -0.81608 0.858834 -0.283653 0.426551 0.306956 -0.910826 -0.275996 -0.669725 -0.125898 0.73186 -0.65129 0.741918 0.159304 0.510338 -0.390455 0.766224 -0.130271 0.807868 0.574786 -0.995878 0.0892845 0.0159537 0.997884 -0.059583 0.0260151 -0.0816613 0.162437 0.983334 -0.907469 0.399818 0.129016 -0.146125 0.104419 0.98374 0.539002 0.349729 0.766268 -0.600711 -0.782797 0.162405 0.460004 -0.783912 -0.416988 -0.0372647 0.369414 0.928518 -0.751104 -0.612545 -0.246236 -0.0852838 -0.990867 -0.104443 -0.589806 0.375531 -0.714916 0.947706 0.268784 -0.172073 0.805529 0.0238996 0.592075 -0.284879 0.783814 0.551797 -0.150353 -0.848286 -0.507744 0.493992 -0.867313 -0.0611562 -0.140076 -0.526237 0.838721 0.352649 0.929477 -0.108218 0.0499384 -0.361241 -0.931134 0.439581 0.542845 0.715603 -0.772979 0.61542 -0.15415 0.774501 0.612091 -0.159663 0.675285 -0.615652 0.406155 -0.819812 -0.53391 0.206998 -0.534534 0.675148 -0.508379 -0.447961 0.226793 0.86481 0.483754 0.863355 0.143531 0.820708 -0.487506 -0.297953 0.580833 0.264508 0.76985 -0.49855 -0.279367 -0.820611 0.482097 -0.6819 0.550087 -0.316935 0.616945 0.720368 -0.867122 0.0973167 0.488497 0.22863 0.667845 0.708316 0.206 -0.448238 0.869854 -0.892704 -0.434137 0.120853 0.982157 0.0601433 0.178186 0.818564 -0.325673 0.47317 -0.0386344 -0.843672 0.535468 -0.56662 0.605436 -0.558917 0.483091 -0.642382 0.594952 -0.798605 -0.5415 -0.262693 0.815226 0.552591 -0.17335 -0.668895 0.305291 0.677773 0.359498 -0.902823 0.235947 -0.037243 0.0465337 -0.998222 -0.759622 0.613898 -0.21472 0.343636 -0.561091 0.753054 -0.238652 0.824835 0.512534 0.333428 -0.583288 -0.740676 0.607106 -0.466757 0.643086 -0.865535 -0.382718 0.323072 0.470951 -0.687315 0.552995 0.636081 -0.587217 -0.500577 0.734612 0.625507 -0.262843 0.61683 -0.732693 0.287544 0.617046 0.415478 -0.668306 -0.927647 -0.243543 0.28312 -0.569678 0.657031 -0.493738 0.47591 -0.0521006 0.87795 0.0848339 -0.877814 0.47143 -0.391076 -0.825713 -0.406519 -0.633518 -0.379798 -0.674098 0.215905 0.970181 -0.110153 -0.450164 0.221542 -0.865027 0.351546 -0.796967 0.491181 0.930335 -0.303139 0.206356 0.685389 -0.200895 -0.699917 -0.628403 0.716535 0.302799 0.390612 -0.0838241 0.916731 0.941812 -0.315785 0.115199 -0.276819 0.849672 -0.448808 -0.921927 -0.321486 0.216097 0.895194 0.204659 0.395906 -0.595035 0.173725 -0.784699 0.307468 -0.223197 -0.925012 0.258599 -0.546911 0.79625 -0.219807 -0.437122 0.872129 -0.884353 -0.465035 -0.0407706 0.640357 0.674898 0.366682 0.805426 0.377478 -0.456945 -0.0596796 0.530415 0.845635 -0.551454 0.825388 0.120967 0.0356751 -0.947285 -0.318399 -0.591967 0.0852814 -0.801437 -0.90891 -0.186347 -0.373038 0.444246 0.670322 0.594402 -0.747165 0.649671 -0.140257 -0.808833 0.117931 0.576091 0.483671 0.404774 -0.776029 -0.488359 0.78062 -0.390049 -0.932289 -0.287413 0.219617 0.610855 0.574779 0.544504 0.882694 0.38205 0.273658 -0.466312 0.880751 -0.0826525 0.00432337 0.987482 0.15767 -0.538905 0.602662 -0.588541 0.436835 0.891214 0.122114 -0.509058 0.821559 0.256713 0.916079 -0.0253241 -0.400198 -0.801736 -0.343506 -0.489105 -0.186074 0.751869 0.63251 0.501975 0.491267 0.711813 -0.368213 0.827899 -0.423087 -0.257786 -0.235301 -0.937112 -0.351746 -0.921043 -0.167196 0.275831 0.689342 -0.669869 -0.507735 0.452797 -0.732926 -0.881754 -0.46206 0.0949216 0.697093 -0.00594749 -0.716956 -0.764614 0.617459 0.184691 -0.506899 -0.0747999 0.858754 0.257714 -0.692258 0.674064 0.481028 -0.546768 0.685315 0.315842 0.907402 0.277246 -0.6437 0.247515 -0.724146 0.740