# vtk DataFile Version 4.0
Generated by libgran
ASCII
DATASET POLYDATA
POINTS 1686 FLOAT
-32.3811 1.26445 6.82921 -31.2019 0.647029 8.22531 -32.9459 1.1552 5.13996 -31.9567 2.20532 6.1983 -33.3043 0.549366 9.34594 -33.3991 1.57758 3.99858 -31.6774 -0.00284209 12.9589 -31.779 -1.64431 13.6009 -32.0091 0.652537 11.8504 -31.9233 -0.536282 10.5158 -31.4066 1.12126 10.4939 -30.6249 1.13324 9.4415 -31.874 -3.01782 16.2957 -30.8994 -2.86099 15.4048 -30.803 -1.72191 15.3159 -29.9301 -0.280763 14.831 -29.3057 -0.00273877 15.561 -29.1918 0.449673 14.119 -33.2966 -3.74707 14.2255 -35.516 -4.00168 15.4642 -34.3377 -3.68055 14.9384 -34.7347 -3.77289 16.6391 -36.2624 -4.46781 14.4609 -34.2323 -4.07152 17.7007 -34.3687 -2.65691 18.0425 -34.6604 -2.1742 19.1088 -33.3741 -2.17208 19.4171 -33.206 -3.60385 22.1296 -34.0855 -2.53118 22.8109 -33.4036 -2.64703 21.0924 -33.2926 -4.87544 22.5085 -34.503 -6.14751 22.0655 -33.7734 -2.57581 24.4649 -32.6763 -3.23321 19.8268 -33.9739 -6.68966 20.0222 -34.8424 -7.76275 19.6563 -32.7484 -7.18245 19.8699 -31.6688 -7.42883 19.8123 -31.0716 -6.38386 21.1641 -31.7344 -5.80785 22.6715 -30.5541 -5.02249 21.4088 -34.2425 -9.03001 20.5568 -26.1415 -11.7121 22.6994 -27.0533 -11.1553 21.9078 -28.3409 -12.0434 21.7323 -25.7359 -11.1357 24.5609 -27.1198 -11.1342 24.9926 -29.7917 -12.9457 21.7499 -31.5424 -10.2361 19.3719 -30.4832 -9.62957 18.6776 -31.0892 -11.4276 19.7501 -32.6048 -11.195 20.1227 -30.3841 -12.5303 20.6928 -33.4236 -10.2816 21.0786 -29.5057 -10.8088 17.6335 -29.4395 -11.9411 16.3704 -28.5742 -14.1611 16.8263 -28.1858 -13.8607 15.5904 -29.4023 -13.1058 15.7127 -27.3562 -13.6435 17.9385 -26.3572 -13.3651 15.3828 -25.8061 -13.4575 18.4339 -25.7133 -14.5791 18.5646 -25.5386 -11.2605 11.9708 -26.5292 -11.7342 11.6203 -26.9156 -10.3597 12.5059 -24.2777 -11.2841 12.3923 -24.0975 -11.8118 10.833 -24.212 -11.2706 14.2555 -24.9877 -12.1507 15.384 -36.1575 15.0592 3.0122 -36.0818 14.5094 1.10707 -35.952 13.5265 0.977144 -35.3811 15.6527 4.27301 -34.9582 15.5581 5.28109 -34.0384 15.9284 5.41146 -34.4739 15.4025 6.14207 -39.0838 13.7107 0.142931 -39.8485 14.3658 -0.724318 -38.1307 15.1176 -0.170868 -38.4646 13.3974 1.01139 -39.2048 11.9273 0.321932 -39.8982 10.8156 0.651507 -40.6038 9.64735 1.24811 -44.7299 10.0169 -0.0331021 -44.7045 9.16266 -0.837757 -45.2803 11.3615 -0.909261 -44.4529 11.482 1.29818 -41.4755 9.07235 1.01258 -40.3467 8.12066 0.363294 -40.4827 8.38639 -0.928844 -40.0658 7.45325 -1.44063 -40.173 6.66859 -0.0709675 -40.2865 9.86813 -1.85804 -41.7634 8.84922 -1.66506 -40.1979 10.2607 -3.13537 -40.1459 5.23244 -0.544058 -40.739 5.17989 0.963128 -40.3907 6.85185 -7.90984 -39.4482 6.61424 -8.81715 -40.4389 5.12703 -8.66335 -40.7942 8.38862 -9.6023 -41.4574 7.80934 -10.2091 -41.9272 8.56541 -8.53258 -42.525 7.39626 -11.0002 -42.5905 7.98613 -9.13934 -41.3828 3.59434 -8.50985 -41.7966 8.87597 -6.3883 -42.3739 8.85165 -7.59768 -42.0428 8.84158 -5.18656 -42.5383 8.63392 -4.19876 -43.3881 8.26916 -3.5661 -42.618 8.126 -2.84249 -44.4428 9.6005 -3.92808 -43.1398 9.38645 -1.76946 -38.6602 3.19346 -10.7283 -37.2983 3.42681 -11.7358 -37.969 2.14813 -10.4003 -39.0296 4.42061 -10.3736 -39.3847 5.64167 -10.8063 -41.0276 5.50506 -10.8661 -38.4855 0.579477 -10.024 -42.0453 5.0304 -11.4901 -41.2539 0.0912358 -7.51801 -40.6115 1.27641 -7.64187 -41.7615 1.96657 -7.931 -39.4179 2.40152 -7.93213 -25.9524 12.9721 19.6634 -26.4011 13.9856 20.3979 -24.8315 14.0236 20.0803 -27.2529 12.3199 18.496 -29.1209 12.9597 19.5911 -29.8056 10.5482 17.8874 -29.7743 12.0583 16.7836 -30.5258 9.4983 17.7461 -30.088 8.73734 18.3829 -28.9798 11.8607 16.2094 -32.2066 9.1735 17.865 -31.0495 9.5091 16.3725 -32.8433 9.01666 19.4196 -26.7132 4.22862 13.3287 -26.5383 3.10642 13.2743 -27.0384 5.45523 13.7258 -28.5783 4.73928 13.69 -28.0025 2.42314 14.0516 -27.746 1.98845 12.6367 -28.451 1.79434 15.4168 -27.3992 1.16962 11.5134 -27.067 1.35169 10.5083 -29.9115 9.00411 15.4999 -31.0241 8.9783 14.7722 -28.5864 9.05205 15.0612 -30.959 7.43216 13.8859 -32.0595 8.83374 13.594 -31.4764 6.18613 13.846 -30.0571 5.68064 13.7769 -33.1623 6.42253 5.59906 -34.1319 5.93082 4.83356 -32.7687 7.27029 6.32367 -32.3051 5.62777 6.84117 -35.8778 5.22114 5.27133 -33.9483 3.80658 6.60106 -37.0231 5.66148 4.68883 -36.6752 5.69182 3.21485 -39.7693 4.2138 3.10162 -38.1857 3.87131 3.34172 -40.9168 4.61149 2.56302 -41.0207 4.06094 0.813495 -37.1088 5.34263 2.33684 -37.6704 3.21058 4.64561 -32.4391 5.6723 11.5674 -31.7261 7.93541 10.542 -33.0775 8.28625 11.5986 -33.3161 8.6689 12.6098 -34.1232 7.65791 13.0358 -32.3514 10.209 12.7981 -34.6037 6.38248 13.692 -34.4783 3.23335 9.1719 -34.1036 3.14868 10.4449 -33.4707 3.35994 7.46486 -33.5433 3.48788 11.679 -26.1651 23.4538 28.0946 -26.6341 22.1821 28.573 -26.1981 22.9603 29.6555 -25.9061 23.6461 26.8046 -26.2403 25.1105 27.458 -26.9565 26.3184 27.5615 -23.3579 23.5703 28.0228 -23.0301 23.7411 30.3388 -23.8563 24.3623 31.5235 -22.7615 23.5298 29.0538 -22.3324 23.2231 28.0765 -24.0353 25.4214 28.6275 -23.8248 24.4641 32.7561 -25.7187 27.5112 32.9922 -25.3279 28.4597 33.841 -26.3351 29.3523 33.1364 -26.0685 26.8971 32.1381 -25.1356 26.1714 31.8596 -23.7269 28.9611 34.8648 -25.8858 25.3397 31.1726 -21.1586 25.8661 34.566 -21.3748 24.5611 34.7009 -20.9943 26.9546 34.612 -19.9609 27.5311 35.4531 -20.9953 28.3921 35.0809 -18.4211 27.1542 36.1562 -18.5518 28.4129 35.8341 -21.9831 29.3481 35 -20.0518 29.4917 34.6041 -28.2227 23.8508 32.89 -28.6176 26.0973 33.3237 -30.7414 25.0381 35.3607 -30.6559 23.936 34.4661 -30.2644 23.3111 32.7127 -26.9256 23.5589 32.7796 -32.0698 21.1939 30.7214 -32.6463 22.0275 32.1967 -30.8167 20.933 30.3567 -29.9667 20.5986 29.9498 -32.7255 23.0365 33.4866 -33.6339 22.6533 33.3196 -35.3931 23.2107 33.1332 -36.1373 23.1936 31.8273 -35.7687 22.324 31.332 -37.0658 24.6361 31.0613 -37.5715 24.4152 32.6917 -37.9903 25.1598 31.712 -36.8439 22.4116 33.1472 -37.5955 25.3734 34.3096 -37.7118 26.4564 32.4388 -41.4981 26.0813 35.6443 -40.8805 27.17 35.1955 -39.957 26.372 34.6951 -38.5588 26.2897 34.4174 -41.4231 26.4511 33.4756 -37.43 26.4626 34.0647 -36.8405 9.86015 21.9518 -37.094 8.86605 22.797 -38.3312 10.2075 22.5962 -35.4432 9.52241 21.1437 -36.4245 10.949 21.0643 -34.2227 8.12736 20.9368 -33.256 7.29802 20.2389 -33.7807 6.60373 19.4958 -32.1105 6.72129 19.5541 -34.3516 5.59519 18.8439 -34.5189 5.19634 20.2131 -30.341 4.97493 19.1444 -29.8705 5.95375 18.8232 -41.4344 11.2124 21.3488 -42.146 10.5882 22.2825 -43.5273 10.3525 21.4575 -41.5284 12.6876 21.5778 -42.8086 12.5567 20.8656 -40.0216 8.54913 19.7403 -40.0368 10.1453 20.3968 -39.5317 8.13497 20.6624 -39.0149 7.67578 21.385 -37.2822 7.79993 20.7244 -38.2397 6.93383 21.9576 -30.2261 16.2196 22.2404 -31.361 16.3298 22.9246 -30.2351 15.967 24.1215 -29.2117 15.6251 21.5643 -30.1149 15.4126 20.5287 -32.3164 17.1587 23.156 -31.8429 18.1182 24.5528 -30.7862 18.7461 26.0496 -34.0486 11.316 19.6824 -33.1323 10.9665 20.5472 -32.2832 11.8996 19.7025 -34.9158 12.2859 19.4073 -35.9561 11.5143 20.1475 -31.1033 11.9255 20.4911 -30.8649 12.8965 20.474 -29.6295 20.0703 26.5049 -29.7078 18.5089 26.2465 -30.4774 20.1831 28.6703 -31.8484 20.2606 27.5574 -29.5032 16.9652 26.3688 -28.9315 15.7733 27.2214 -31.5026 20.5438 25.2131 -32.5159 19.9402 26.2088 -31.3338 21.8522 25.3796 -32.8336 22.6307 25.0335 -34.4524 22.4825 25.1145 -34.3682 23.8489 23.4356 -5.85361 24.398 37.8226 -4.86039 24.3469 37.9271 -7.10503 23.9436 37.8794 -5.34295 23.6547 37.3904 -7.8782 25.0397 38.9861 -8.6841 23.605 38.3667 -8.72939 24.6833 38.6009 -8.73368 25.5415 39.1141 -4.61556 22.6438 37.5844 -3.55409 23.3283 36.9553 -4.20238 20.9534 37.6007 -9.57669 22.7541 37.3025 -5.41398 19.1536 38.9139 -5.54217 20.083 37.6956 -6.21941 17.9755 39.1414 -6.63858 16.9798 39.4394 -3.64838 20.2893 38.5174 -0.911115 24.6082 37.9329 -2.04391 24.7458 37.2503 -2.22827 23.5272 37.1186 0.154592 26.1494 37.8225 -2.05123 26.3944 36.94 -2.38271 22.2892 36.9406 -2.20731 28.1546 37.3506 0.506626 30.5307 37.6954 1.35401 29.3 38.38 -2.28869 29.8137 37.0709 2.33224 28.9111 37.5416 -3.04269 29.1166 38.4345 -20.6675 31.4685 42.331 -19.46 31.0129 42.011 -20.7321 31.4279 44.0316 -21.929 30.916 42.6207 -18.1945 29.8113 44.3945 -18.5736 30.1428 45.9587 -17.6416 29.205 42.8678 -15.3311 28.3924 40.9244 -16.1038 28.1913 41.9876 -14.389 27.0483 40.7158 -17.1539 28.0622 42.1892 -16.9887 26.9018 43.1195 -16.0839 26.4441 42.5185 -13.1985 27.0253 41.4967 -13.9867 26.512 42.1426 -16.8123 26.0365 44.4449 -11.1367 23.5314 42.0643 -12.3642 23.8429 42.4763 -11.0164 24.0317 41.2068 -10.2186 23.6804 41.6969 -12.6375 24.7727 43.5668 -13.0181 23.7146 44.3489 -13.3036 26.2135 43.4364 -10.2629 25.1655 40.8964 -14.9089 26.1089 42.8822 -10.0432 27.2714 38.8455 -9.43665 26.1399 38.4713 -10.6127 26.7992 40.2153 -10.7201 27.772 40.4202 -11.6164 27.3332 38.9145 -10.5349 27.1231 41.1581 -19.7103 34.8067 39.727 -19.85 35.7795 38.0941 -18.7356 35.2204 40.5321 -18.6392 36.8206 40.3616 -18.3207 36.539 41.2668 -18.8631 37.3729 41.1647 -18.879 38.5121 40.6753 -19.7252 35.4464 37.0415 -20.5145 36.8341 37.6005 -17.7898 37.7424 41.9901 -18.863 40.3089 44.6641 -20.584 40.0547 44.0766 -20.7263 40.5688 45.1129 -20.8553 39.3539 42.6815 -22.195 39.3763 43.884 -19.4865 39.2042 41.4709 -17.8057 38.8816 41.5007 -20.6514 42.2762 46.6091 -19.5209 42.9304 45.354 -20.0875 41.7336 47.6841 -21.2911 41.1466 46.4236 -19.457 43.0892 44.0993 -18.2788 43.7785 44.9493 -20.3383 39.2361 48.6091 -21.2816 38.0373 51.5953 -20.6122 39.1485 51.3034 -21.6812 39.8866 52.0205 -19.6677 38.9967 50.0745 -18.1207 39.8915 50.0135 -22.5911 40.6555 51.8607 -16.5927 28.0834 38.6427 -15.9016 27.8305 37.5353 -16.0785 29.2111 37.3786 -15.6325 26.2883 37.5008 -17.201 29.5219 36.4142 -14.5581 25.7557 38.6455 -13.0968 26.6007 38.7766 -18.6064 29.452 35.3719 -18.8792 30.6054 34.2182 -18.1742 29.9006 34.1389 -17.9815 30.8362 33.843 -19.1499 31.6561 35.9378 -18.7587 31.0788 36.9653 -21.7343 30.1 36.9811 -22.2116 31.3222 35.9608 -21.8832 33.4236 41.5438 -23.4959 32.7603 41.6424 -21.2733 32.5866 40.7099 -21.7043 32
[...]
POINT_DATA 1686
FIELD FieldData 1
normals 3 1686 double
-0.380777 0.386022 -0.840236 0.798412 -0.231402 0.55587 -0.184034 -0.495276 -0.849019 0.805192 0.554843 0.209321 -0.320352 0.857708 0.402135 -0.269152 0.917653 -0.292353 -0.373823 0.916258 -0.143975 -0.47536 -0.725208 0.498102 0.0421768 -0.260879 -0.96445 0.0436204 -0.92794 -0.370168 0.560314 0.729601 -0.392084 0.221384 -0.717617 -0.660314 -0.430808 -0.820082 0.376657 0.543762 -0.663247 -0.514224 0.640142 0.475829 -0.603162 0.232769 0.965318 0.118234 -0.391589 0.687294 -0.611789 0.505521 -0.234882 -0.830228 -0.79783 0.594387 -0.100857 -0.93505 0.20673 -0.288 0.243285 0.527863 -0.81374 -0.153758 0.435515 0.886953 0.1887 -0.672861 -0.715298 0.656168 -0.734137 0.174607 0.519831 0.680468 0.516468 -0.811518 -0.19776 0.549845 0.474701 -0.19564 0.858128 0.701865 -0.677503 0.219946 -0.1777 0.395168 0.901257 0.50419 0.279311 -0.817177 -0.788529 -0.594091 0.158991 -0.421839 -0.677976 -0.601997 0.489825 -0.4398 0.75276 0.223146 -0.865488 -0.448481 0.827171 0.0918864 0.554388 -0.0412764 -0.981213 0.188462 0.398359 -0.584677 -0.706727 0.681246 0.338297 0.649199 -0.0840256 0.706672 0.702534 -0.578805 -0.130668 0.804929 0.601494 0.654692 -0.457804 0.64119 -0.286041 0.712079 -0.313273 0.945286 -0.0910774 -0.598524 -0.388582 -0.700552 -0.689049 -0.499509 0.525073 0.815686 0.550151 0.178856 -0.568178 0.551613 0.610653 -0.761747 -0.402712 -0.507508 -0.421144 -0.906874 -0.0147245 0.638095 -0.300329 -0.70897 0.874383 -0.284597 0.393013 -0.641234 -0.0520549 0.765578 -0.169302 -0.818095 0.549598 -0.177619 0.965524 0.1903 0.339362 -0.878935 -0.335123 -0.273112 -0.253302 -0.928034 0.517907 -0.143922 0.843243 0.906255 0.156499 -0.392695 -0.310249 0.911399 -0.270364 0.700047 0.661503 0.268977 0.922372 0.339046 0.185142 0.850074 -0.475511 0.226414 0.757286 0.646037 0.0956772 0.866548 -0.0417471 -0.497345 -0.124007 -0.515415 -0.847921 -0.510481 0.85906 0.0377529 0.394339 0.0181764 0.918785 0.57451 -0.509582 -0.640519 -0.328643 -0.00472251 0.944442 -0.447087 -0.875362 0.183995 -0.0821357 0.162151 0.983342 -0.00646531 -0.387657 -0.921781 -0.136322 0.595306 -0.791851 0.858472 0.431321 0.277467 -0.435483 -0.525889 0.730613 0.484243 -0.155608 0.860985 0.919726 0.370282 0.13037 -0.152745 -0.842607 0.516413 -0.917472 -0.187505 -0.350837 0.800367 0.564235 0.202614 0.771958 0.529289 0.352044 0.0317688 -0.940821 -0.337412 -0.725203 -0.170907 0.666986 0.0195687 -0.997328 -0.0703801 -0.577838 0.815673 -0.0279547 -0.552517 -0.0385535 -0.83261 0.0273908 0.52896 -0.848204 -0.52925 0.845477 -0.0711491 0.89127 -0.422329 0.165152 -0.237613 0.529366 0.814439 -0.373654 0.795101 -0.477699 0.0431976 -0.138037 -0.989485 -0.0639644 -0.922699 0.380177 0.569805 0.686641 -0.451493 -0.907065 -0.33227 -0.258515 -0.481126 -0.294119 -0.82584 0.0910876 -0.513456 -0.853268 -0.502031 -0.566 0.653918 -0.308204 0.847477 0.432197 0.6343 0.609864 -0.475109 -0.356412 -0.877343 -0.32131 -0.331173 0.640471 0.692908 -0.994402 0.0611891 0.0861483 -0.801879 -0.46368 0.376816 -0.0731643 -0.474263 -0.877338 -0.138647 0.115601 0.983572 -0.587436 -0.655345 0.474808 0.222081 -0.725595 0.6513 -0.355199 -0.749919 -0.558082 -0.468241 0.691208 0.550437 -0.0272692 -0.898872 0.437362 -0.822544 0.534115 0.195299 -0.0524574 0.390952 0.918915 -0.232121 0.797225 -0.557271 -0.469286 0.869494 0.154115 -0.856584 0.354059 0.375375 0.505287 0.58741 -0.632167 -0.165458 -0.691273 0.703396 0.487121 0.873088 -0.0207264 -0.842162 0.347979 -0.411915 -0.800747 -0.48459 0.352103 -0.351025 -0.877377 -0.327096 -0.216983 0.00992791 -0.976125 -0.29887 0.902905 -0.308932 0.941315 0.282264 0.185074 -0.208704 0.972428 -0.104051 0.252307 0.842851 -0.475335 -0.392501 -0.475289 -0.787428 -0.841137 0.538228 -0.0529106 0.728422 0.57628 -0.370543 -0.907921 -0.176882 -0.379989 -0.690852 0.0446382 -0.721617 0.16575 -0.936674 0.308495 0.197108 0.573375 -0.795229 -0.885934 -0.113227 -0.449779 -0.448116 -0.874187 0.187055 -0.597398 0.770911 -0.220933 -0.794888 -0.21157 0.568675 0.362275 0.124026 -0.923783 0.158197 0.0547207 0.98589 -0.886204 0.429508 0.173684 -0.711304 -0.692687 0.119296 0.560984 0.797105 0.223428 -0.978881 0.0811511 0.187632 -0.752897 0.00939973 0.658071 -0.496343 -0.425287 -0.756819 0.304446 -0.638197 0.707119 0.843073 -0.393541 -0.366544 -0.51088 0.575612 -0.638493 0.775706 -0.629022 0.051115 -0.336873 -0.654832 -0.676544 0.549426 0.676969 -0.489738 0.401985 -0.891308 -0.209709 -0.698506 0.510276 -0.501705 -0.919436 -0.354716 0.169748 0.499903 -0.860209 0.100683 0.190412 -0.0983619 0.976764 -0.779227 -0.590065 0.211256 0.203139 0.946123 -0.252162 0.666808 -0.696391 0.26534 -0.966633 -0.119619 0.22652 0.963425 -0.26785 0.00822226 -0.178695 0.559956 -0.809023 0.526639 -0.52961 -0.664955 -0.823284 0.395286 0.407372 0.760258 0.0527946 0.647473 -0.324233 0.00240299 -0.945974 0.220347 -0.55295 -0.803551 0.960238 -0.180416 0.213058 -0.244939 -0.713528 0.656416 0.268353 -0.703547 0.658034 -0.554664 0.643313 0.527728 -0.796724 -0.29247 0.52886 0.558125 0.675116 0.482405 -0.248954 -0.335869 0.908413 0.406611 0.864943 -0.294178 -0.231533 -0.939564 -0.252213 0.521789 -0.052196 -0.851476 0.896449 -0.136867 0.421481 0.485837 0.178784 -0.855569 -0.336096 0.47607 0.812648 -0.325492 0.68857 -0.648017 -0.794483 -0.583123 -0.1696 -0.358546 0.195086 0.9129 0.584475 -0.496269 -0.641955 0.250244 0.968115 0.0114762 -0.96645 0.239829 0.0919564 0.758772 0.591346 0.273083 0.106199 -0.843125 -0.527126 -0.719918 -0.221934 0.657619 0.162433 0.631836 -0.757891 0.266724 -0.938471 -0.219387 -0.328378 -0.458491 -0.825805 0.751402 0.323751 0.574961 0.417963 -0.868614 -0.266112 0.808727 0.0798817 0.582734 -0.198397 0.972513 -0.121894 -0.767792 0.254504 -0.587983 0.165117 -0.471185 -0.866442 0.79232 0.421545 0.441055 -0.915317 -0.360537 0.179464 0.128954 0.572341 -0.809813 -0.0872757 -0.732745 -0.674884 0.0353134 0.516083 0.855811 0.998062 0.0604699 -0.0147 -0.0363527 0.921422 -0.38686 0.541714 -0.437335 0.717833 0.41103 0.821284 0.39566 -0.95144 0.034578 0.305885 0.979877 0.178181 -0.0899624 0.514448 -0.498988 -0.697392 0.849797 -0.172645 -0.498035 0.0930078 -0.990719 0.0991249 -0.00757055 -0.111424 -0.993744 0.399076 -0.513517 -0.75963 0.782656 0.207076 0.587 0.402836 -0.771548 -0.492379 -0.173667 0.0620549 0.982847 0.850219 0.51071 0.127684 -0.000189413 -0.845104 -0.534602 0.0944244 0.946987 0.307082 -0.813993 0.563731 0.140081 -0.945199 -0.00629443 -0.326434 -0.20104 0.0108214 0.979523 0.167566 -0.858719 0.484276 -0.618602 -0.428332 0.658684 0.11292 0.207418 0.971713 -0.305845 0.952048 -0.00797636 -0.505587 -0.792807 0.340351 -0.136936 0.750798 0.646182 0.58429 0.344532 0.73478 -0.969178 -0.207322 0.133085 -0.351555 0.881314 -0.315745 0.571915 0.0832997 -0.816073 0.826315 -0.165525 0.538335 -0.404688 -0.811585 0.421376 0.302464 0.338367 -0.89108 0.859734 0.370867 -0.351162 0.606267 -0.623231 0.493987 -0.630988 0.718239 0.293236 0.537614 -0.708603 -0.457004 -0.443707 0.717956 -0.536343 0.682788 -0.68645 0.250173 0.283931 -0.14289 -0.948138 -0.808635 -0.551398 0.20511 0.861628 -0.43384 0.263402 0.237772 -0.457147 -0.857019 0.070435 -0.855998 0.512158 -0.0945737 0.401733 -0.91086 0.565085 0.57709 0.589615 0.116099 -0.0660141 0.991041 -0.827707 -0.55823 -0.0572776 -0.553615 0.322529 -0.767779 -0.972433 -0.0175892 0.23252 -0.307782 -0.113272 -0.94469 0.971422 0.102447 0.214112 0.0900083 -0.100061 0.990902 -0.48148 -0.516608 0.70802 0.998243 0.0574171 0.0146129 0.734538 0.066733 -0.675278 -0.222962 -0.799369 0.55794 0.178297 -0.134379 -0.974758 -0.95655 -0.0241459 -0.290568 0.169387 -0.387031 0.906375 0.83613 -0.460079 0.298687 -0.067067 -0.672614 -0.736948 0.0011159 0.852963 0.52197 0.472396 0.106562 0.874921 0.584362 0.521338 0.621874 -0.995361 0.0457365 0.0846463 -0.0790906 -0.303785 0.949452 0.770031 0.629363 0.104662 0.128133 0.924198 -0.359778 -0.912123 0.152608 0.38045 0.409891 -0.603502 0.68394 0.648205 0.367536 0.666894 0.572333 0.802914 -0.166627 0.494017 -0.758487 -0.425023 0.510484 -0.42958 0.744894 -0.860568 -0.35214 -0.367995 -0.289446 -0.785274 0.547326 0.861101 -0.406608 0.305246 0.820287 0.571754 -0.0150344 -0.193061 -0.0318272 0.980671 -0.651461 0.73663 0.181591 -0.848409 0.0418621 -0.527683 -0.770323 -0.190057 0.608672 -0.455141 -0.729736 -0.510228 -0.482554 -0.692167 -0.5367 0.510659 -0.74325 -0.432211 -0.768872 0.237856 0.593515 0.993213 -0.0510842 0.104489 -0.00429276 0.858242 0.513227 -0.81019 -0.576472 -0.106172 -0.855481 0.501767 0.127995 -0.851188 -0.356475 -0.385232 -0.265825 -0.959857 0.0895092 0.795649 -0.275319 -0.539576 0.679 -0.730481 -0.0731843 -0.0824033 -0.274502 -0.958049 0.170609 -0.960536 0.21969 0.0424273 -0.0310861 -0.998616 -0.976034 -0.217477 0.00779455 0.55686 -0.778286 0.290136 -0.124999 0.0663337 0.989937 0.786983 0.606826 0.111442 -0.345809 0.74444 -0.571161 -0.53017 -0.474193 -0.702895 0.278723 0.934385 -0.221897 0.338485 0.904105 0.260811 0.375728 -0.763736 0.524915 -0.494565 0.856134 0.149803 -0.410196 0.345533 -0.844006 0.437186 -0.885134 -0.159395 -0.413184 -0.802982 0.429533 0.541042 0.496238 -0.678986 -0.340819 0.105901 0.934145 -0.550551 -0.100829 0.82869 0.656962 -0.556427 0.508713 0.485937 0.0601914 0.871919 -0.71094 -0.451687 -0.53902 0.743253 -0.17046 -0.64693 0.36419 0.16108 0.917289 -0.190289 -0.435787 -0.879704 0.400611 -0.635155 -0.66037 -0.372133 -0.836223 0.402801 0.541525 -0.708991 0.451755 -0.67795 0.707058 -0.20113 -0.5127 -0.453343 0.729122 0.392048 -0.910979 0.128125 0.6489 0.686014 0.329111 -0.139272 0.172717 0.975075 0.689056 -0.411889 0.59628 0.797752 -0.35128 0.490096 -0.429723 -0.0397668 0.902085 0.918067 0.149063 -0.367332 0.120315 0.500342 -0.857427 0.156366 0.969563 0.188406 -0.224248 -0.0885016 0.970505 -0.822407 0.471231 -0.31873 -0.164616 0.984718 0.0568572 -0.782949 -0.575773 -0.235534 -0.754736 0.176706 0.631782 -0.148213 -0.954825 0.25757 0.185183 -0.648945 0.737955 0.0778104 0.323927 0.942877 -0.81853 -0.114918 -0.562852 -0.107372 0.972871 0.204922 0.335867 -0.352601 0.873422 0.196126 0.620241 -0.759497 0.638815 0.766318 -0.0683508 -0.542435 0.833874 -0.102067 -0.223916 0.552247 0.803047 0.318519 -0.281626 0.905115 0.302659 0.857647 0.41574 -0.0713306 -0.953411 -0.293119 -0.860624 0.434313 0.265891 0.754773 0.651126 -0.0796958 0.991053 -0.131434 0.0232019 -0.729963 -0.385632 -0.564306 -0.872218 0.128437 0.471953 0.458713 -0.315196 -0.830803 -0.880969 -0.292776 0.371719 0.910126 0.165551 -0.379821 0.770634 -0.488145 0.40968 -0.332334 -0.680254 0.653306 0.798249 -0.0260787 -0.601763 0.896227 0.137678 0.421689 -0.307373 -0.449382 -0.838795 -0.734445 0.184868 -0.653004 0.443822 0.874179 0.197061 0.665819 -0.54231 0.512431 0.279798 -0.959924 0.0160766 0.949232 0.15124 -0.275836 -0.119805 0.889321 0.441311 -0.00475592 -0.302966 -0.952989 -0.438649 0.459605 -0.772237 -0.790029 -0.120374 -0.601136 0.696881 0.529101 -0.484158 -0.00583968 -0.782016 -0.623231 -0.182718 0.598541 -0.779976 0.274983 -0.760173 0.588661 -0.939782 -0.287727 -0.184453 0.799415 0.227503 0.556038 0.661852 0.617552 -0.424948 -0.465567 0.217847 -0.857782 0.192741 0.935564 -0.295923 0.897729 0.230795 -0.375254 0.704988 -0.704769 -0.0793313 0.849805 0.143086 0.507305 -0.45869 -0.720412 0.520202 -0.737244 0.621956 -0.263898 0.259969 0.600237 -0.756394 0.9472 -0.0505227 -0.316638 -0.66547 -0.713868 -0.218043 -0.337324 -0.786485 -0.517352 -0.09362 0.720133 -0.687491 -0.443232 -0.873245 0.202457 -0.992536 -0.112456 0.0471788 -0.750393 0.660603 -0.0226747 -0.47216 -0.235275 -0.849535 -0.0645277 -0.903817 0.423027 -0.425077 -0.214314 0.87942 0.299908 -0.949244 -0.0948155 0.616077 0.158915 -0.771489 -0.0514691 -0.584674 -0.809634 -0.667547 -0.74359 -0.0381468 -0.620425 0.783697 0.0298644 -0.652682 -0.408064 0.638349 -0.00439433 0.976621 0.214921 0.527583 0.34725 0.775289 0.290348 -0.62297 0.726366 -0.237235 -0.970219 -0.0489233 0.198151 -0.977858 -0.0672993 0.932529 0.344797 -0.107257 0.972741 -0.173329 -0.154049 0.278482 0.957817 -0.0709565 0.367942 0.127332 0.921089 0.563319 0.00372804 -0.826231 0.813618 -0.0205152 0.581037 -0.146761 0.0753031 -0.986301 -0.35343 0.324854 0.877244 0.596971 0.798579 0.076795 -0.358555 -0.495657 0.791052 -0.88698 0.46074 0.0313981 0.982387 -0.140396 -0.123304 0.0198005 0.513164 0.858062 0.201672 0.979423 -0.00768918 -0.474908 -0.804772 -0.356096 0.181872 0.46626 -0.865751 -0.232081 -0.153174 0.96056 -0.0342243 -0.142907 -0.989144 -0.914006 -0.261899 -0.309843 0.133814 0.230327 -0.963869 -0.371966 0.925669 -0.0691163 -0.149655 0.541178 0.827484 0.926817 -0.363859 -0.0928286 0.164542 -0.390295 0.905867 -0.136397 0.641597 -0.754817 -0.81892 -0.435033 -0.374322 0.947574 0.138174 -0.288116 -0.0402606 0.00768828 0.99916 -0.247947 0.856969 0.451803 0.0784665 -0.156046 0.984628 0.0902365 -0.718675 0.689466 0.705946 -0.0212886 -0.707946 -0.0934377 0.630667 -0.770408 -0.555085 -0.600901 -0.575151 0.839414 0.18799 0.509945 0.521956 -0.203528 -0.828335 -0.5376 -0.220645 0.813819 -0.0282598 -0.09432 0.995141 0.467479 -0.182381 -0.864986 0.324057 -0.940635 -0.100959 0.916808 0.191982 -0.350151 0.485211 0.645729 0.589579 0.814662 -0.196178 -0.545747 0.858352 0.474782 0.194458 0.0436902 0.67096 0.740205 0.74924 -0.535249 -0.390062 -0.965952 -0.251545 0.0605199 0.0455705 -0.997501 0.0539917 0.000530055 0.224203 -0.974542 -0.929495 0.315769 -0.190601 -0.700194 -0.598767 -0.388853 0.291166 0.333054 0.896826 -0.0119908 -0.992144 0.124523 0.857631 0.514208 -0.00762999 -0.427426 0.86325 -0.268528 0.862558 0.498448 0.0868504 0.349925 -0.762681 -0.543939 0.658058 0.720975 -0.217152 0.766013 -0.0571947 0.640276 0.821484 0.0734416 0.565483 -0.315049 -0.869072 0.38139 -0.232514 -0.339281 -0.911496 -0.61939 0.462069 0.634703 0.360139 -0.242859 0.900733 0.474002 -0.5752 0.666683 -0.692477 0.702371 0.164773 0.423722 0.465292 0.777151 -0.370338 -0.599144 0.709843 -0.850142 0.223984 -0.476539 -0.69179 0.3384 0.637897 0.730635 0.350646 -0.585849 -0.853703 0.511985 0.0951961 -0.690066 0.458399 -0.560071 0.715615 0.694687 -0.0728407 -0.825522 -0.310802 -0.471079 0.322832 0.588488 -0.741256 -0.161454 0.803672 -0.572752 -0.141473 -0.800989 -0.581723 -0.448264 -0.352227 0.821581 -0.130455 -0.956357 -0.261464 0.395418 -0.343908 -0.851688 0.448656 -0.416795 0.790563 0.525873 0.612449 -0.590224 0.75247 0.286131 -0.593227 0.504062 0.762218 0.406134 0.838624 -0.533924 0.107861 -0.237146 -0.00293665 -0.97147 -0.524998 -0.704549 -0.47748 0.991225 -0.121385 -0.0523332 -0.679686 0.275583 0.679765 -0.960699 0.0914282 -0.262105 -0.281012 -0.184155 -0.94187 -0.0545692 -0.998416 -0.0137272 -0.616124 -0.66318 0.424952 0.623761 0.232382 0.746271 0.988607 -0.148768 -0.02291 -0.365187 0.17161 0.91498 -0.0179352 0.286129 -0.958023 -0.189902 0.928917 -0.317886 -0.410262 0.14635 -0.900148 -0.22036 -0.782568 -0.582262 -0.864637 -0.437972 0.246136 -0.984168 -0.06661 -0.164248 -0.988512 -0.149762 0.0203831 -0.15764 0.138016 -0.977804 -0.209589 -0.331368 0.919928 0.706803 -0.70741 -0.00053652 0.148864 0.960396 -0.235542 0.997704 -0.0321622 -0.0595949 -0.323065 0.835384 0.444705 -0.204202 0.705899 0.678239 0.900138 0.435462 -0.0111237 -0.992092 0.125394 -0.00554031 -0.203881 -0.389391 0.898225 -0.0220254 0.570433 -0.821049 -0.873712 -0.370328 -0.315412 0.656 0.522893 -0.544285 -0.937414 0.0652851 0.342043 -0.743423 0.603996 -0.287247 -0.384059 0.15226 0.910668 0.368292 -0.546629 -0.752035 0.636456 -0.750913 0.176217 0.96322 -0.254575 -0.0860224 -0.122282 -0.892047 -0.435085 0.148098 0.0185184 -0.988799 0.352803 0.0415765 -0.934773 0.17533 0.0588327 0.98275 -0.954991 0.0886128 0.28309 0.175323 0.81342 0.554626 0.0698553 0.860676 -0.504339 0.915424 0.370114 0.158161 -0.510329 0.671782 0.536911 0.277319 -0.105569 -0.95496 -0.153469 0.424073 -0.89253 -0.416182 0.506424 0.7552 -0.811582 0.539088 -0.225209 0.936852 0.265386 -0.227769 -0.203281 -0.782776 -0.588166 0.791569 -0.0285623 -0.610411 0.880879 -0.330697 0.338661 -0.759722 0.574839 -0.303947 -0.154097 -0.970025 -0.187897 0.492218 -0.635401 0.594968 0.0893101 -0.302134 0.949072 0.0370215 -0.99851 0.0400816 0.50816 -0.421248 0.751215 -0.924232 -0.34763 0.15795 0.564546 0.106737 -0.818471 -0.159106 0.852679 0.497619 0.158965 -0.480796 -0.862303 0.278578 -0.882069 0.379933 -0.932685 0.139062 -0.332808 0.140554 0.840846 -0.522706 0.899955 0.364291 -0.239527 -0.673299 -0.699177 -0.240457 -0.920477 -0.381023 -0.0868562 -0.0759158 -0.550387 -0.831451 -0.988095 -0.152904 -0.0170166 -0.860971 -0.420572 0.286091 -0.771927 -0.309157 0.555473 -0.535684 0.841641 -0.0684357 0.325976 0.421518 -0.846204 0.503638 -0.252345 -0.826239 0.864395 -0.291371 0.409785 0.300206 -0.917615 -0.260497 -0.666138 -0.108232 0.737933 -0.638284 0.75365 0.156859 0.506684 -0.393928 0.766871 -0.151203 0.809182 0.567769 -0.996131 0.086304 -0.0165903 0.996667 -0.0583816 0.0569768 -0.165998 0.193298 0.966996 -0.970315 0.233848 0.0616779 -0.218943 0.124605 0.967749 0.513117 0.333977 0.790677 -0.442149 -0.877872 0.18397 0.628825 -0.696322 -0.345999 -0.159409 0.401426 0.901912 -0.57853 -0.783465 -0.226904 0.118641 -0.991887 -0.0456522 -0.637092 0.190241 -0.746942 0.95217 0.191115 -0.238429 0.841889 -0.0270302 0.538973 -0.180847 0.822727 0.5389 -0.254424 -0.847853 -0.465202 0.421537 -0.904017 -0.0711269 -0.124734 -0.497301 0.858564 0.420128 0.892098 -0.166292 -0.0562716 -0.379065 -0.923657 0.528992 0.516011 0.673721 -0.731662 0.672297 -0.112641 0.806763 0.54699 -0.223463 0.65196 -0.661474 0.370675 -0.840178 -0.45981 0.287534 -0.518595 0.703333 -0.486192 -0.366559 0.276809 0.888263 0.556835 0.825881 0.0886322 0.757939 -0.554908 -0.342936 0.654324 0.236528 0.718272 -0.57736 -0.258711 -0.774418 0.467188 -0.706848 0.531132 -0.216633 0.653701 0.725083 -0.818901 0.17305 0.547225 0.328789 0.663371 0.672188 0.228722 -0.46836 0.85342 -0.912033 -0.369878 0.177159 0.993365 -0.011798 0.114399 0.828563 -0.350924 0.436274 -0.0659276 -0.83217 0.550587 -0.554536 0.636036 -0.536608 0.499349 -0.662957 0.557798 -0.843621 -0.50223 -0.189916 0.823912 0.510512 -0.246061 -0.597689 0.336905 0.727504 0.33582 -0.917899 0.211392 -0.121238 0.0474052 -0.991491 -0.742622 0.654505 -0.141899 0.424028 -0.518511 0.742527 -0.289161 0.807082 0.514785 0.369003 -0.548831 -0.750081 0.675516 -0.394335 0.623039 -0.80764 -0.471643 0.353936 0.560701 -0.627558 0.540172 0.679127 -0.519207 -0.518855 0.654894 0.696476 -0.293319 0.70196 -0.658907 0.270359 0.545796 0.473935 -0.691008 -0.885815 -0.340133 0.315659 -0.653673 0.587132 -0.47748 0.509248 0.00230705 0.860617 0.194613 -0.861962 0.468132 -0.314634 -0.864269 -0.392485 -0.610533 -0.452045 -0.650311 0.105845 0.986975 -0.121148 -0.49833 0.164803 -0.85118 0.451089 -0.750394 0.483143 0.96378 -0.199068 0.177486 0.680996 -0.129157 -0.720807 -0.698397 0.639403 0.321567 0.427579 -0.0334165 0.90336 0.973845 -0.210835 0.0847042 -0.364004 0.820615 -0.440559 -0.883225 -0.404044 0.238038 0.882234 0.285659 0.374249 -0.629495 0.124385 -0.766984 0.299524 -0.191454 -0.934682 0.337587 -0.517205 0.786469 -0.146885 -0.464757 0.87317 -0.843103 -0.537589 -0.0132627 0.595722 0.722081 0.351732 0.751749 0.449761 -0.482274 -0.0697717 0.513103 0.855487 -0.613472 0.774282 0.155369 0.102192 -0.936919 -0.334276 -0.631165 0.0438599 -0.774407 -0.901104 -0.253724 -0.35162 0.411012 0.695683 0.589148 -0.80521 0.585374 -0.0947275 -0.793435 0.0440189 0.607061 0.420034 0.45341 -0.786124 -0.569175 0.73668 -0.365161 -0.894298 -0.371403 0.249581 0.602477 0.595686 0.531205 0.850469 0.460269 0.254666 -0.545752 0.834989 -0.0703397 -0.0821259 0.983487 0.161271 -0.602702 0.552475 -0.575779 0.360054 0.925843 0.114784 -0.574561 0.7735 0.26754 0.89927 0.0605668 -0.433181 -0.787335 -0.402291 -0.467189 -0.225314 0.723986 0.65198 0.484365 0.52062 0.703097 -0.450403 0.800567 -0.395259 -0.273177 -0.242779 -0.930824 -0.279626 -0.94537 -0.167583 0.189661 0.718318 -0.669364 -0.573184 0.417171 -0.705286 -0.835275 -0.536068 0.122257 0.665569 0.0617553 -0.743777 -0.804116 0.547556 0.231474 -0.459952 -0.133424 0.877862 0.344163 -0.68098 0.646389 0.552549 -0.512485 0.657304 0.249475 0.927396 0.278746 -0.690953 0.201049 -0.69438 0.729