# vtk DataFile Version 4.0
Generated by libgran
ASCII
DATASET POLYDATA
POINTS 1686 FLOAT
-32.9646 2.18586 6.52626 -31.5813 1.33182 7.56448 -33.8305 2.34786 4.97436 -32.6205 3.20606 5.97472 -33.8562 -0.965186 7.83361 -34.4289 2.95618 3.99537 -30.8965 0.138978 12.2247 -30.5881 -1.54774 12.6452 -31.5723 0.803625 11.2922 -31.6848 -0.253 9.85246 -31.2546 1.42848 9.90238 -30.7586 1.60921 8.70237 -29.8901 -3.21702 15.0752 -29.1563 -2.77215 14.0594 -29.279 -1.6339 14.123 -28.7643 -0.00753759 13.718 -28.1086 0.277699 14.4171 -28.2261 0.91062 13.045 -31.606 -3.94561 13.1849 -33.4225 -4.82886 14.7333 -32.4542 -4.18242 14.091 -32.4778 -4.61686 15.7849 -34.2584 -5.32479 13.8188 -31.7179 -4.94519 16.6699 -32.0595 -3.66762 17.2925 -32.3531 -3.28486 18.3981 -31.0619 -3.16721 18.6593 -30.5279 -4.64626 21.3338 -31.7126 -3.88838 21.9746 -30.9622 -3.78617 20.2841 -30.2627 -5.83506 21.8671 -31.0996 -7.42873 21.6688 -31.4513 -3.8263 23.6369 -30.2028 -4.14496 18.954 -30.4428 -8.14046 19.7113 -31.0424 -9.4307 19.5871 -29.1324 -8.33663 19.5999 -28.028 -8.2862 19.515 -27.7287 -6.89194 20.6296 -28.4991 -6.27163 22.0667 -27.6189 -5.41927 20.6165 -30.1469 -10.3378 20.6604 -21.765 -12.4286 23.2565 -22.698 -12.0473 22.3893 -23.9883 -12.9475 22.4379 -21.3119 -11.4752 24.944 -22.684 -11.3776 25.4014 -25.4366 -13.8203 22.6824 -27.2804 -11.6853 19.8019 -26.2763 -11.2784 18.9085 -26.815 -12.7446 20.4571 -28.3176 -12.412 20.8059 -26.0694 -13.6224 21.5863 -29.1799 -11.2991 21.4666 -25.3788 -12.6874 18.105 -25.3925 -14.0819 17.137 -24.5804 -16.1698 18.0748 -24.278 -16.2188 16.7807 -25.4387 -15.3718 16.784 -23.2305 -15.5011 18.9229 -22.4557 -15.9015 16.321 -21.6564 -15.3268 19.3405 -21.6802 -16.3374 19.8521 -21.7636 -14.8847 12.3333 -22.8208 -15.3139 12.1703 -22.9945 -13.6939 12.5808 -20.4912 -14.9347 12.7158 -20.4642 -15.9433 11.4026 -20.3171 -14.3731 14.4851 -21.051 -14.819 15.868 -36.584 16.2985 3.59843 -37.195 15.7724 1.78533 -37.2066 14.7836 1.63616 -35.3824 16.7987 4.52069 -34.6601 16.651 5.33342 -33.7191 16.9324 5.14554 -33.9346 16.4389 5.98817 -40.4213 15.3396 1.84611 -41.344 16.075 1.23456 -39.4685 16.6255 1.19441 -39.5969 14.9581 2.48685 -40.6763 13.5835 2.12619 -41.4052 12.5839 2.66929 -42.0541 11.5286 3.49617 -46.3502 12.2283 3.65197 -46.7111 11.2718 3.07525 -47.1264 13.5215 2.87492 -45.516 13.7855 4.58679 -43.0079 11.0497 3.57932 -42.2397 9.95595 2.67634 -42.8028 10.1744 1.49566 -42.632 9.19532 0.931071 -42.2936 8.47848 2.30029 -42.8674 11.6091 0.478478 -44.2359 10.6784 1.1979 -43.1866 11.9453 -0.777964 -42.4943 7.02437 1.93644 -42.5352 7.07437 3.5557 -44.8974 8.32564 -4.99941 -44.2542 8.00177 -6.11716 -45.2315 6.58107 -5.62386 -45.6799 9.82203 -6.59126 -46.5124 9.26234 -6.96172 -46.4621 10.1057 -5.26194 -47.7761 8.88622 -7.4067 -47.2946 9.54596 -5.63239 -46.1736 5.11663 -5.14279 -45.7273 10.4852 -3.25514 -46.6178 10.4521 -4.25632 -45.6252 10.5121 -2.03252 -45.8006 10.3801 -0.929681 -46.4118 10.0983 -0.0338805 -45.4544 9.94691 0.410577 -47.4715 11.4712 -0.123222 -45.5497 11.2879 1.50832 -44.208 4.47204 -8.0174 -43.2443 4.56216 -9.4272 -43.45 3.4393 -7.82546 -44.3929 5.72927 -7.62582 -44.7953 6.9539 -8.00339 -46.3934 6.91322 -7.596 -43.7888 1.91877 -7.16047 -47.5659 6.47771 -7.88945 -45.8819 1.6972 -3.90164 -45.2543 2.86789 -4.163 -46.4277 3.55113 -4.35999 -44.0989 3.96719 -4.64407 -25.1289 13.6729 19.8824 -25.6777 14.4612 20.8019 -24.278 14.9766 20.2177 -26.405 12.7283 18.9033 -28.1097 12.7131 20.4318 -28.503 10.3243 18.3461 -29.061 11.9981 17.7244 -29.0071 9.1737 18.0953 -28.2617 8.44157 18.3864 -28.4081 12.1542 16.9831 -30.4944 8.42839 18.5161 -29.8796 9.29304 16.9182 -30.6355 7.84957 20.0946 -26.0694 4.91212 12.6869 -25.8411 3.82586 12.4403 -26.4254 5.99824 13.3664 -27.9407 5.25135 13.19 -27.2437 2.95912 13.1449 -26.998 2.73077 11.6806 -27.5829 2.20529 14.4779 -26.6454 2.00045 10.4995 -26.3141 2.22266 9.50227 -28.9979 9.17391 15.6852 -30.2649 9.11024 15.2867 -27.8965 9.51554 14.8973 -30.3381 7.74319 14.1439 -31.5127 9.10263 14.3255 -30.8355 6.50376 13.948 -29.4396 6.08763 13.5566 -33.6868 7.30767 5.56886 -34.8745 6.87379 5.15765 -33.0211 8.16265 6.04267 -32.607 6.53345 6.63834 -36.4783 6.45241 6.15452 -34.4378 4.79083 6.91301 -37.6624 7.07775 5.92686 -37.784 7.06338 4.41702 -40.9587 6.08342 5.31289 -39.4494 5.4906 5.08218 -42.1773 6.58763 5.15237 -42.9007 5.97004 3.58075 -38.5202 6.78795 3.73661 -38.6744 4.77174 6.21568 -32.1772 6.31949 11.7966 -31.7434 8.78481 11.1429 -32.8678 8.85092 12.4834 -32.9287 9.03319 13.5739 -33.6142 7.91458 13.9395 -31.9996 10.5766 13.8781 -33.9069 6.51062 14.4205 -34.5095 3.97401 9.47112 -33.9057 3.79088 10.6415 -33.8283 4.24813 7.62554 -33.1325 4.00411 11.7856 -25.683 23.0705 29.0431 -26.0809 21.8084 29.6041 -25.694 22.6795 30.6331 -25.4306 23.192 27.7433 -25.8496 24.6748 28.2989 -26.6335 25.8443 28.3213 -22.8866 23.3412 28.9636 -22.5763 23.6814 31.2633 -23.4391 24.3305 32.4061 -22.2922 23.4021 29.9947 -21.8432 23.0572 29.0393 -23.6699 25.1862 29.446 -23.4195 24.5219 33.6283 -25.4753 27.4503 33.6746 -25.1548 28.4534 34.4895 -26.1787 29.2653 33.7148 -25.7898 26.7668 32.8604 -24.8183 26.0773 32.6254 -23.6125 29.0755 35.5369 -25.5211 25.1655 31.9919 -20.9276 26.0135 36.0913 -21.0127 24.7459 36.484 -20.829 27.0981 35.925 -19.8714 27.8614 36.7048 -20.889 28.5992 36.0967 -18.3827 27.679 37.5755 -18.5096 28.8444 37.0005 -21.8836 29.4891 35.7575 -19.9306 29.6117 35.4778 -27.7704 23.6578 33.8077 -28.2944 25.903 34.0971 -30.3512 24.8537 36.2066 -30.2007 23.7005 35.3882 -29.7749 22.9839 33.6784 -26.4588 23.4318 33.7155 -31.4533 20.643 31.8303 -32.0771 21.5306 33.2539 -30.1872 20.435 31.4769 -29.3193 20.1276 31.0866 -32.215 22.6111 34.4794 -33.0991 22.165 34.3406 -34.8885 22.6045 34.1281 -35.6305 22.4518 32.8297 -35.214 21.5706 32.397 -36.638 23.7814 31.9654 -37.1306 23.651 33.6095 -37.5902 24.2985 32.5804 -36.2925 21.7291 34.2054 -37.2081 24.7207 35.1542 -37.3845 25.6577 33.2107 -41.1443 25.3161 36.4519 -40.586 26.399 35.9193 -39.6214 25.6158 35.4766 -38.2209 25.5874 35.1995 -41.0902 25.5242 34.2611 -37.1035 25.7968 34.8308 -33.9394 7.05787 23.5746 -33.734 5.88927 24.1737 -35.2471 6.84775 24.5766 -32.7644 7.28263 22.4395 -34.0245 8.36879 22.9262 -31.3556 6.35874 21.6393 -30.4614 5.96211 20.5657 -31.026 5.29547 19.8267 -29.4644 5.81766 19.5175 -31.5848 4.32944 19.1037 -31.2412 3.6348 20.3125 -27.5885 4.64013 18.3234 -27.414 5.73923 18.1132 -38.7251 7.09858 24.3641 -38.9526 6.15093 25.2686 -40.4198 5.65221 24.7757 -39.0966 8.42336 24.951 -40.461 8.03471 24.5629 -37.2643 5.26637 21.8771 -37.4644 6.65977 22.8755 -36.4364 4.8746 22.5275 -35.6328 4.48185 22.9748 -34.2643 5.23538 21.968 -34.5683 3.91444 23.1301 -29.5773 15.5478 23.3721 -30.6101 15.4724 24.2062 -29.2888 15.2478 25.224 -28.5632 15.2177 22.5342 -29.5342 14.8021 21.6298 -31.6278 16.1851 24.5375 -31.1758 17.2277 25.881 -30.1075 17.9829 27.3092 -32.2298 9.67944 21.2598 -31.0847 9.60136 21.8861 -30.7581 10.7837 20.9912 -33.3572 10.374 21.3825 -33.9459 9.21691 22.1174 -29.5198 11.162 21.5729 -29.5905 12.1595 21.5781 -29.0134 19.3889 27.6629 -29.012 17.8148 27.4806 -29.8072 19.6051 29.8378 -31.2021 19.5527 28.7534 -28.6482 16.3142 27.7168 -27.8855 15.2812 28.6254 -30.9321 19.687 26.3849 -31.8929 19.1164 27.4497 -30.8218 21.012 26.4083 -32.3333 21.7057 25.9505 -33.9516 21.5365 25.9861 -33.8166 22.7226 24.1748 -6.41418 25.0612 41.2955 -5.45727 24.9416 41.5601 -7.70124 24.7264 41.2114 -5.92696 24.2246 41.045 -8.50726 26.0272 42.0375 -9.36075 24.5934 41.4833 -9.32647 25.6936 41.571 -9.3151 26.6123 41.966 -5.34484 23.1929 41.4754 -4.13803 23.6911 40.9403 -5.11778 21.4893 41.7487 -10.1636 23.6603 40.4165 -6.8254 20.0176 43.0398 -6.6407 20.8171 41.7394 -7.8784 19.0563 43.2749 -8.52213 18.1948 43.5903 -4.78559 20.8813 42.8015 -1.51836 24.8129 42.177 -2.46571 24.9783 41.2587 -2.83655 23.7959 41.2855 -0.188934 26.1312 42.0431 -2.12705 26.5229 40.6988 -3.09354 22.5631 41.2379 -2.04569 28.3333 40.7841 0.92864 30.3272 41.337 1.40393 29.1351 42.3637 -1.78027 29.9048 40.2384 2.44817 28.47 41.8362 -2.88886 29.5896 41.4977 -21.3413 33.3489 42.6474 -20.068 32.9851 42.5273 -21.5687 33.6646 44.3047 -22.5625 32.7228 42.9591 -19.0268 32.3077 45.2529 -19.6068 32.9081 46.6684 -18.2903 31.4752 43.9231 -15.8104 30.2107 42.4234 -16.7103 30.2509 43.4014 -14.9666 28.7943 42.563 -17.7833 30.226 43.4906 -17.8197 29.2413 44.6167 -16.8954 28.6281 44.2183 -13.8762 28.8354 43.4777 -14.7712 28.4958 44.0986 -17.8632 28.6647 46.1007 -12.1288 25.403 44.9504 -13.3832 25.8275 45.0914 -11.8478 25.7213 44.045 -11.1578 25.4484 44.7154 -13.7354 26.9553 45.9472 -14.3246 26.0826 46.8232 -14.263 28.3895 45.4986 -10.9868 26.748 43.6524 -15.8001 28.2895 44.7758 -10.3843 28.3921 41.2811 -9.85155 27.1724 41.1512 -11.1483 28.2237 42.627 -11.2208 29.221 42.6233 -11.9471 28.5217 41.1244 -11.1692 28.7267 43.491 -20.4002 36.1922 39.5319 -20.3646 36.7449 37.7083 -19.6678 36.9424 40.3505 -19.7992 38.4856 39.9031 -19.5412 38.4148 40.8667 -20.1905 39.1165 40.5731 -20.3272 40.1403 39.887 -20.0081 36.2134 36.8 -21.0576 37.5377 36.8785 -19.282 39.7931 41.4017 -21.1095 42.7418 43.3583 -22.6684 42.0197 42.7101 -23.0329 42.7276 43.5611 -22.633 40.9812 41.5136 -24.0919 40.997 42.5684 -21.1158 40.8409 40.4938 -19.4187 40.8169 40.7156 -23.5639 44.7994 44.3933 -22.5064 45.3325 43.0227 -22.998 44.7809 45.5964 -23.8752 43.537 44.5643 -22.3556 45.203 41.772 -21.4393 46.3242 42.4716 -22.7276 42.7279 47.2884 -23.6117 42.299 50.5055 -23.2175 43.3981 49.8694 -24.5003 44.0098 50.2962 -22.1573 43.1324 48.76 -20.8787 44.3408 48.4282 -25.5643 44.4093 49.9053 -16.7996 29.2151 39.9832 -16.0071 28.7381 39.0281 -16.1875 30.0388 38.5407 -15.7759 27.231 39.3846 -17.2247 30.0877 37.4414 -14.9031 26.9935 40.7739 -13.4471 27.8422 40.9367 -18.5465 29.7695 36.3378 -18.7509 30.6632 34.961 -18.0304 29.9789 35.0736 -17.8314 30.8431 34.6114 -19.1639 32.0129 36.4164 -18.8361 31.6759 37.5657 -21.7981 30.621 37.6243 -22.2167 31.5544 36.3143 -22.6661 34.9199 41.3085 -24.1947 34.0797 41.3974 -21.8651 34.0182 40.7488 -22.0932 33.656 39.5411 -25.1058 32.393 41.6681
[...]
POINT_DATA 1686
FIELD FieldData 1
normals 3 1686 double
-0.50939 0.517183 -0.687781 0.87391 -0.336858 0.350438 -0.356562 -0.355183 -0.864123 0.853469 0.503021 0.136236 -0.859411 -0.468543 -0.204647 -0.241795 0.963504 -0.11487 -0.548777 0.834775 0.0446578 -0.240385 -0.851946 0.465191 -0.127034 -0.170128 -0.9772 0.0145543 -0.886498 -0.462504 0.444728 0.794983 -0.412576 0.051271 -0.614251 -0.787443 -0.197459 -0.925858 0.322175 0.536288 -0.480983 -0.693578 0.413626 0.657265 -0.630013 0.101105 0.969098 0.225004 -0.554567 0.683861 -0.47412 0.437065 -0.0509405 -0.897986 -0.875482 0.448951 0.178813 -0.995603 0.0393188 -0.0850241 -0.0273101 0.68576 -0.727316 -0.0508887 0.251316 0.966566 0.159718 -0.535255 -0.829453 0.810781 -0.579642 -0.0815455 0.469194 0.69793 0.541065 -0.762852 -0.31517 0.564558 0.52841 -0.197525 0.825691 0.863007 -0.438654 0.250603 -0.321632 0.319219 0.891433 0.428729 0.421433 -0.799115 -0.597781 -0.750156 0.282708 -0.239073 -0.843511 -0.480972 0.582847 -0.257135 0.770825 0.330628 -0.780226 -0.530973 0.774645 0.381895 0.504066 0.175072 -0.908348 0.379806 0.535728 -0.578063 -0.615499 0.568724 0.628489 0.530617 -0.269425 0.765771 0.583956 -0.501008 -0.145461 0.853131 0.379204 0.706897 -0.597076 0.720454 0.0012347 0.693502 -0.317129 0.906184 -0.279749 -0.615935 -0.524925 -0.587433 -0.674307 -0.375218 0.63602 0.819173 0.572289 0.0379681 -0.552948 0.669911 0.495447 -0.773977 -0.497619 -0.39158 -0.421398 -0.877077 0.230563 0.58272 -0.470248 -0.6628 0.886799 -0.18224 0.424707 -0.615783 0.150319 0.773444 -0.141142 -0.695546 0.704482 -0.246496 0.962568 -0.112705 0.314776 -0.938677 -0.140719 -0.328434 -0.455892 -0.827221 0.576088 0.0359668 0.816596 0.878522 -0.0130313 -0.477524 -0.282223 0.833948 -0.474216 0.773756 0.632704 0.0314179 0.943713 0.330286 0.0178144 0.800418 -0.458398 0.386267 0.824239 0.552215 -0.125253 0.825458 -0.305266 -0.474797 -0.231731 -0.734498 -0.63782 -0.405352 0.88546 -0.227267 0.447009 0.255248 0.85734 0.474008 -0.753348 -0.455833 -0.27291 0.306281 0.911983 -0.461006 -0.752179 0.47085 0.26372 0.15447 0.95215 -0.347284 -0.371705 -0.860947 -0.335665 0.617019 -0.71177 0.937852 0.345746 -0.0298962 -0.215547 -0.493467 0.842633 0.72548 -0.212097 0.654748 0.941026 0.281371 -0.187886 -0.0731526 -0.817056 0.571898 -0.995865 -0.0817331 -0.0396515 0.879678 0.468827 -0.0798039 0.897562 0.435481 0.0688416 -0.181833 -0.93903 -0.291821 -0.547031 -0.0605766 0.834917 -0.101924 -0.99476 -0.00803019 -0.502778 0.860514 0.0820296 -0.863753 -0.0959928 -0.494688 -0.27348 0.432658 -0.859078 -0.471584 0.881615 0.0190439 0.851835 -0.515814 -0.0911799 0.0836698 0.577899 0.811808 -0.479389 0.796317 -0.36887 -0.308655 -0.182728 -0.933457 0.0297637 -0.899569 0.435763 0.414793 0.638467 -0.648311 -0.953694 -0.292252 0.0711146 -0.734004 -0.302348 -0.608131 -0.230445 -0.554541 -0.799612 -0.271334 -0.504541 0.819644 -0.137316 0.878673 0.45725 0.505892 0.554806 -0.660502 -0.471461 -0.865892 -0.1672 -0.0948691 0.684 0.723287 -0.927394 0.124305 0.352828 -0.687325 -0.400378 0.606037 -0.336264 -0.500428 -0.797809 0.145203 0.159316 0.976491 -0.470634 -0.598545 0.648265 0.358838 -0.713658 0.601604 -0.531658 -0.746777 -0.399579 -0.25676 0.740547 0.621019 0.0814016 -0.872483 0.481816 -0.692633 0.590657 0.413985 0.264805 0.439267 0.858442 -0.367035 0.782271 -0.503327 -0.360122 0.901691 0.239303 -0.688627 0.417178 0.59309 0.275026 0.507297 -0.816707 0.0693829 -0.615559 0.785031 0.503705 0.840045 -0.201508 -0.906143 0.384587 -0.176061 -0.691909 -0.425267 0.583446 -0.408181 -0.904974 -0.12004 -0.480566 -0.0102435 -0.876899 -0.329285 0.886973 -0.323805 0.95687 0.283725 0.0624499 -0.216535 0.96696 -0.134541 0.198543 0.815573 -0.543527 -0.399896 -0.516997 -0.756834 -0.948651 0.271302 0.162655 0.450957 0.786724 -0.421549 -0.876226 -0.427614 -0.222205 -0.786047 -0.146115 -0.600649 0.431844 -0.901947 -0.00144362 -0.126155 0.771819 -0.623202 -0.935927 -0.248657 -0.24942 -0.190578 -0.980787 0.0416822 -0.779061 0.615737 0.118035 -0.551411 -0.496654 0.670284 0.0634229 0.367997 -0.927661 0.410317 -0.0821607 0.908234 -0.895379 0.342259 0.284876 -0.667085 -0.743996 0.0383125 0.539414 0.74387 0.394576 -0.975884 -0.00302401 0.218268 -0.735557 -0.122741 0.666251 -0.489759 -0.351092 -0.798041 0.3964 -0.631091 0.666777 0.842289 -0.379226 -0.383062 -0.51095 0.601429 -0.614178 0.818239 -0.48713 -0.305268 -0.44869 -0.550798 -0.703774 0.283159 0.828759 -0.482679 0.375443 -0.816253 -0.439059 -0.799165 0.543192 -0.257447 -0.872808 -0.423175 0.243166 0.523054 -0.839305 -0.148264 0.442435 -0.0233698 0.896496 -0.745265 -0.457251 0.485285 0.223251 0.878351 -0.422681 0.637421 -0.750847 0.172985 -0.858479 0.0358743 0.511593 0.936211 -0.290188 -0.198241 -0.325624 0.589458 -0.739262 0.204 -0.603826 -0.77057 -0.589414 0.522016 0.616515 0.919859 -0.0708017 0.385807 -0.629213 -0.0178039 -0.777029 -0.094195 -0.59979 -0.794594 0.940228 -0.328393 -0.0901584 -0.14483 -0.648058 0.747693 0.426303 -0.774118 0.467983 -0.446705 0.49647 0.744293 -0.677693 -0.430359 0.596258 0.616813 0.612634 0.494188 -0.0687463 -0.505973 0.859805 0.312307 0.930785 -0.190011 -0.223933 -0.897996 -0.378758 0.354505 0.0216158 -0.934804 0.958339 -0.161509 0.235587 0.326708 0.252507 -0.91077 -0.185149 0.374737 0.908456 -0.361559 0.624911 -0.691925 -0.759472 -0.637227 -0.130934 -0.37251 0.233906 0.898067 0.613995 -0.503431 -0.607921 0.194993 0.97941 -0.0522928 -0.978926 0.190089 0.0746278 0.72311 0.650111 0.233381 0.155357 -0.868381 -0.470934 -0.707479 -0.21919 0.671885 0.128695 0.589165 -0.797698 0.320264 -0.934116 -0.157664 -0.299175 -0.529229 -0.793984 0.727113 0.410521 0.550254 0.465053 -0.859268 -0.213035 0.785585 0.143812 0.601809 -0.238349 0.955684 -0.172796 -0.779566 0.175769 -0.601151 0.19191 -0.51378 -0.836182 0.756717 0.478284 0.445673 -0.894707 -0.39799 0.202739 0.136253 0.408751 -0.902418 0.0511532 -0.858824 -0.50971 -0.0375966 0.675858 0.736073 0.99521 0.0874155 0.0437759 -0.0224158 0.825219 -0.564368 0.49341 -0.269787 0.826899 0.366514 0.895666 0.251894 -0.972171 0.0647139 0.225159 0.980786 0.187308 -0.0545327 0.543297 -0.51353 -0.664165 0.85868 -0.155572 -0.48833 0.153725 -0.974168 0.165422 -0.00322217 -0.17905 -0.983835 0.429012 -0.537542 -0.725946 0.768293 0.287489 0.571905 0.447673 -0.775231 -0.445652 -0.17608 0.112384 0.97794 0.818415 0.567182 0.0922063 0.04946 -0.874532 -0.482439 0.0381297 0.968123 0.247555 -0.846 0.521963 0.108801 -0.943366 -0.0824078 -0.321356 -0.201365 0.0703164 0.976989 0.215124 -0.810879 0.54424 -0.593793 -0.413395 0.690301 0.101136 0.282983 0.953778 -0.358441 0.930505 -0.0753648 -0.460604 -0.793055 0.398633 -0.178608 0.786709 0.590921 0.564141 0.428633 0.705705 -0.956641 -0.248014 0.15273 -0.398333 0.834899 -0.379834 0.566267 0.051665 -0.822601 0.834232 -0.0800267 0.545575 -0.36052 -0.797778 0.483297 0.283173 0.289448 -0.914348 0.632315 0.654957 -0.413774 0.83775 -0.513642 0.185328 -0.675418 0.444843 0.588154 0.542682 -0.430194 -0.721408 -0.717371 0.655968 -0.234703 0.866067 -0.493694 -0.0787104 0.0281333 0.097067 -0.99488 -0.592718 -0.763714 0.255786 0.968928 -0.241521 -0.0533509 0.0339971 -0.202316 -0.97873 0.377548 -0.896955 0.230063 -0.422286 0.50678 -0.751564 0.596788 0.592316 0.541301 0.420251 -0.185996 0.888141 -0.647772 -0.761658 0.0163843 -0.81939 0.262939 -0.509375 -0.823998 -0.341651 0.451998 -0.540404 -0.0470018 -0.840092 0.93659 0.35025 -0.0111731 0.404193 -0.225964 0.886323 -0.108655 -0.742023 0.66151 0.91222 0.349276 -0.21415 0.456321 0.404256 -0.792684 0.152348 -0.916691 0.369415 0.0583456 -0.0814184 -0.994971 -0.974449 -0.156775 -0.160843 0.346891 -0.38135 0.856877 0.955785 -0.248625 0.157039 -0.015203 -0.664281 -0.747329 -0.0432555 0.869444 0.492134 0.495219 0.173174 0.851334 0.573126 0.582058 0.576832 -0.920036 -0.270373 0.283605 0.225075 -0.348459 0.9099 0.551714 0.833898 0.0150227 -0.207353 0.96495 -0.160861 -0.79597 -0.192155 0.574028 0.686559 -0.455569 0.566652 0.615835 0.541913 0.571906 0.520957 0.823901 -0.223139 0.522409 -0.750169 -0.405384 0.537368 -0.352036 0.766359 -0.857435 -0.404484 -0.318117 -0.158677 -0.750464 0.64158 0.921353 -0.282496 0.267029 0.794148 0.602525 -0.0793252 -0.166605 0.0318354 0.98551 -0.683822 0.722384 0.102713 -0.82769 -0.0286667 -0.560454 -0.790628 -0.140466 0.595967 -0.429158 -0.786091 -0.444843 -0.469687 -0.716973 -0.515116 0.487214 -0.836589 -0.250481 -0.81738 0.382177 0.431081 0.956902 -0.119617 0.264634 0.0113662 0.918629 0.394957 -0.842128 -0.515246 -0.159188 -0.807845 0.585038 -0.0715283 -0.819212 -0.333591 -0.466486 -0.374777 -0.912167 0.16581 0.832029 -0.413888 -0.369357 0.601838 -0.791357 0.107447 0.039244 -0.417821 -0.907682 -0.0566927 -0.945876 0.319538 0.128003 -0.146331 -0.980919 -0.996306 -0.015432 -0.0844783 0.352571 -0.846048 0.399871 -0.269648 0.183314 0.94535 0.848737 0.498344 0.176912 -0.0986087 0.6638 -0.741381 -0.469452 -0.518635 -0.714586 0.480689 0.819977 -0.310767 0.437262 0.880834 0.181478 0.212464 -0.714129 0.666992 -0.355897 0.929557 -0.0962295 -0.177855 0.240124 -0.95431 0.297431 -0.95199 0.0724602 -0.621314 -0.641858 0.449429 0.746813 0.2869 -0.599966 -0.487273 0.326684 0.809841 -0.616417 0.0126081 0.787319 0.656869 -0.351206 0.667216 0.389029 0.30304 0.869956 -0.604807 -0.63872 -0.475653 0.819504 -0.284818 -0.497285 0.239504 0.315531 0.918193 -0.0830355 -0.547752 -0.83251 0.4168 -0.766349 -0.488864 -0.48306 -0.726205 0.489162 0.426969 -0.650134 0.628509 -0.589996 0.701366 -0.399989 -0.626412 -0.283346 0.72617 0.297907 -0.896584 0.327702 0.663505 0.691296 0.28613 -0.231513 0.351652 0.907052 0.582923 -0.293281 0.757752 0.689941 -0.272911 0.670449 -0.564421 0.151541 0.811458 0.970949 0.0453453 -0.234951 0.281008 0.318256 -0.905399 0.212179 0.976222 0.044395 -0.377043 0.103577 0.920386 -0.739745 0.457975 -0.492988 -0.109958 0.981358 -0.157627 -0.797408 -0.557958 -0.229832 -0.815532 0.325942 0.478195 -0.282768 -0.893715 0.348303 0.0515467 -0.494319 0.867751 -0.0209461 0.503043 0.864008 -0.747282 -0.19632 -0.634845 -0.0724927 0.997362 -0.00374242 0.214676 -0.0914105 0.972398 0.250264 0.461248 -0.851245 0.517793 0.841562 -0.153829 -0.649238 0.701649 -0.293563 -0.391269 0.630884 0.669995 0.257968 -0.0707636 0.963559 0.121231 0.953064 0.277438 0.106311 -0.992695 -0.0570447 -0.943192 0.331558 0.0214301 0.65053 0.747397 -0.134943 0.986872 0.0764796 0.142249 -0.572003 -0.645634 -0.505935 -0.936499 0.062347 0.345083 0.60738 -0.392801 -0.690505 -0.851556 -0.377032 0.364279 0.909829 0.252463 -0.329353 0.787267 -0.27643 0.551178 -0.217146 -0.515349 0.829013 0.840411 0.0177567 -0.541659 0.783075 0.49687 0.37405 -0.0941471 -0.747028 -0.658092 -0.689634 -0.147225 -0.709034 0.226674 0.973925 -0.00940976 0.727614 -0.166062 0.665584 0.508548 -0.794112 0.332815 0.902772 0.304963 -0.303315 -0.379996 0.916705 0.12351 0.157373 -0.570601 -0.806008 -0.463198 0.064663 -0.883893 -0.684075 -0.517186 -0.514355 0.730946 0.427133 -0.532236 0.0615501 -0.904082 -0.422903 -0.118865 0.396575 -0.910274 0.169594 -0.603037 0.779477 -0.918385 -0.34762 -0.189022 0.703221 0.365501 0.609828 0.752739 0.483202 -0.447101 -0.403353 0.0294448 -0.914571 0.198936 0.864177 -0.462194 0.919444 0.179924 -0.349644 0.720508 -0.684252 0.11255 0.806044 0.278071 0.522465 -0.478223 -0.615082 0.626879 -0.727584 0.510758 -0.457982 0.308961 0.422648 -0.852004 0.982286 0.00841834 -0.1872 -0.546282 -0.831823 -0.098217 -0.181249 -0.910162 -0.372496 -0.0469384 0.547957 -0.835189 -0.364846 -0.854886 0.368859 -0.968941 -0.246321 -0.0218833 -0.79985 0.531595 -0.278652 -0.268577 -0.473699 -0.838735 -0.0809885 -0.788405 0.609801 -0.519998 -0.03894 0.853279 0.344908 -0.925027 0.159259 0.681941 0.0126202 -0.731298 0.0511484 -0.758966 -0.649119 -0.630793 -0.771587 0.0821786 -0.539051 0.842015 -0.0208748 -0.636644 -0.265891 0.723869 0.102848 0.988449 0.111318 0.654214 0.295504 0.69619 0.265621 -0.625133 0.733931 -0.388593 -0.920636 0.0377409 0.140698 -0.973884 -0.178197 0.944745 0.24004 -0.223245 0.955362 -0.269752 0.12049 0.355686 0.915139 0.18976 0.0613336 -0.0566518 0.996508 0.81355 0.127033 -0.56745 0.560304 -0.283278 0.77834 0.185504 0.236307 -0.953807 -0.593028 0.235252 0.770048 0.583734 0.655773 0.478766 -0.224774 -0.435547 0.871651 -0.934744 0.349347 0.0648825 0.984036 0.00940396 -0.177719 0.0350019 0.657449 0.752686 0.0613529 0.979121 -0.193799 -0.336648 -0.926036 -0.170659 0.0263511 0.321673 -0.946484 -0.10984 -0.0049609 0.993937 -0.114147 -0.321186 -0.940112 -0.930672 -0.350311 -0.105504 -0.0271431 0.0417326 -0.99876 -0.452358 0.887774 -0.0850233 -0.0721979 0.601935 0.795275 0.93804 -0.313366 -0.147929 0.283132 -0.291482 0.913715 -0.231746 0.610261 -0.757546 -0.876381 -0.425117 -0.226345 0.896918 0.0940934 -0.43207 0.109995 0.0549414 0.992412 -0.153483 0.884983 0.439599 0.221062 -0.113034 0.968687 0.173098 -0.692669 0.700176 0.641013 -0.0246489 -0.767134 -0.284957 0.649044 -0.705366 -0.766952 -0.538048 -0.3497 0.97273 0.107156 0.205704 0.195688 -0.234299 -0.952266 -0.253662 -0.186423 0.949159 0.281929 -0.0495317 0.958156 0.405601 -0.233058 -0.883839 0.240439 -0.965565 -0.0993594 0.860152 0.218425 -0.4609 0.506644 0.706508 0.494123 0.768634 -0.192341 -0.610088 0.835116 0.546769 0.0602083 0.066483 0.73911 0.670296 0.744883 -0.518838 -0.419473 -0.937503 -0.283791 0.201373 0.101096 -0.987235 0.123069 -0.139759 0.178998 -0.973872 -0.95926 0.272332 -0.0752064 -0.765314 -0.593093 -0.25007 0.296897 0.41184 0.861533 0.0452479 -0.979798 0.194803 0.857023 0.394612 0.33135 -0.273304 0.945101 -0.179137 0.831288 0.359859 0.42363 0.439819 -0.694245 -0.569722 0.744437 0.655726 0.125843 0.541921 -0.267917 0.796582 0.599647 -0.152603 0.78558 -0.464911 -0.88411 0.0469773 0.0546285 -0.104649 -0.993008 -0.749715 0.425045 0.507213 0.0305391 -0.453097 0.890938 0.185476 -0.750403 0.634424 -0.667533 0.735673 0.114829 0.180193 0.233821 0.955436 -0.612771 -0.679629 0.403257 -0.638374 0.427838 -0.63987 -0.838303 0.283809 0.465511 0.900531 0.357189 -0.247912 -0.804687 0.591203 -0.0543887 -0.441863 0.653079 -0.615017 0.747269 0.589015 0.307653 -0.650966 -0.0918133 -0.753534 0.599653 0.6517 -0.46444 0.0854431 0.917453 -0.388561 -0.0473045 -0.656194 -0.753108 -0.705324 -0.410608 0.577857 -0.150193 -0.864779 -0.479165 0.591588 -0.257618 -0.763974 0.148836 -0.61087 0.777615 0.741781 0.607161 -0.284809 0.921831 0.253123 -0.293525 0.433303 0.593354 0.678366 0.728035 -0.649828 0.218377 0.115624 0.27354 -0.954886 -0.417524 -0.53637 -0.733472 0.945719 -0.252232 0.204926 -0.858769 0.192571 0.474797 -0.803674 0.291524 -0.518769 0.0550949 0.0989534 -0.993566 -0.147465 -0.966297 -0.211007 -0.779653 -0.616927 0.107437 0.382031 0.0367193 0.92342 0.927421 -0.287248 0.239539 -0.611502 0.0990163 0.785023 0.305932 0.401273 -0.863357 -0.024607 0.975188 -0.220005 -0.0916232 0.295904 -0.950813 -0.0670162 -0.679285 -0.730808 -0.937156 -0.335932 -0.0942747 -0.882012 0.0538736 -0.468137 -0.957439 -0.00113262 -0.288633 0.16307 0.295544 -0.941309 -0.512768 -0.421594 0.747882 0.599661 -0.796706 0.0752729 0.307815 0.951408 -0.00851793 0.957793 -0.169407 0.232238 -0.362245 0.807599 0.465363 -0.278549 0.755906 0.592466 0.921613 0.305737 0.239068 -0.92309 0.261216 -0.282262 -0.474666 -0.320135 0.819881 0.28197 0.463711 -0.83992 -0.814602 -0.28014 -0.507882 0.848773 0.362586 -0.384858 -0.957239 0.261093 0.124597 -0.972349 -0.0727435 -0.221913 -0.333527 0.567027 0.753153 0.561663 -0.662516 -0.495587 0.957593 -0.128786 0.25774 0.948636 0.163665 -0.270745 0.179098 -0.981196 -0.0719591 0.083789 -0.318622 -0.944171 0.185614 -0.173176 -0.967242 -0.0340587 0.0720726 0.996818 -0.959679 0.273769 0.0637699 0.208622 0.790658 0.575619 0.337206 0.807983 -0.483172 0.915291 0.197703 0.350935 -0.473384 0.77839 0.412331 0.446875 -0.197688 -0.87248 0.123216 0.405664 -0.905679 -0.4584 0.609213 0.647092 -0.566269 0.721163 -0.399078 0.997037 0.0739813 -0.0210604 -0.23594 -0.553815 -0.798512 0.871707 -0.0702136 -0.484971 0.72077 -0.597688 0.351084 -0.575868 0.785073 -0.228115 -0.249667 -0.820813 -0.513744 0.23406 -0.867822 0.438294 -0.150937 -0.527475 0.836055 -0.134407 -0.952556 -0.273079 0.208033 -0.713951 0.668578 -0.971856 -0.198449 -0.126942 0.74331 0.229438 -0.62837 -0.160103 0.687805 0.708019 0.2851 -0.214113 -0.934277 0.166592 -0.978154 0.124344 -0.852507 0.322842 -0.411101 0.313142 0.88585 -0.342361 0.962668 0.258146 -0.0814338 -0.683686 -0.444864 -0.578506 -0.905503 -0.12257 -0.406252 0.0758487 -0.179945 -0.980748 -0.961629 0.0729585 -0.264473 -0.970277 -0.232937 -0.0655938 -0.918088 -0.329523 0.220295 -0.402247 0.896135 0.187456 0.578021 0.633333 -0.514569 0.668704 -0.0189856 -0.743286 0.69024 -0.598156 0.407158 0.240554 -0.92288 -0.300711 -0.769928 -0.0892149 0.631864 -0.555099 0.815112 0.165702 0.339846 -0.538695 0.770917 -0.240396 0.740711 0.627341 -0.922665 0.240637 -0.301303 0.914137 -0.222019 0.339207 -0.494233 0.0959539 0.864018 -0.917263 0.309038 -0.251246 -0.546679 0.0324958 0.836711 0.261327 0.120629 0.957683 -0.502591 -0.856919 -0.11442 0.692961 -0.695856 -0.18865 -0.469376 0.299754 0.830562 -0.443722 -0.746902 -0.495226 0.101832 -0.986699 -0.12671 -0.371241 0.285538 -0.883543 0.992351 0.0488421 0.113371 0.599224 -0.235309 0.765219 -0.207637 0.801605 0.560639 -0.225183 -0.743332 -0.629881 0.303772 -0.949026 -0.0840945 -0.469394 -0.564386 0.679071 0.591934 0.801235 0.0873881 -0.000408263 -0.539049 -0.842274 0.337105 0.313715 0.887662 -0.568042 0.798988 -0.19735 0.894981 0.423728 0.139513 0.410139 -0.811435 0.416363 -0.943148 -0.332074 -0.0141154 -0.256165 0.831282 -0.493304 -0.591048 0.221507 0.775627 0.59083 0.71166 0.380078 0.760802 -0.615722 -0.205103 0.434382 0.0448249 0.899612 -0.347133 -0.0711971 -0.935109 0.205523 -0.833306 0.513187 -0.353065 0.579079 0.734855 -0.923947 0.205207 0.32282 0.178811 0.505007 0.84439 -0.118147 -0.657167 0.744428 -0.950792 -0.234587 -0.202395 0.891302 -0.204565 0.404642 0.59497 -0.4924 0.635258 -0.34389 -0.877901 0.33321 -0.259704 0.787262 -0.55926 0.277989 -0.800191 0.531429 -0.77384 -0.36831 -0.515285 0.884419 0.455388 0.102099 -0.776709 0.257035 0.575027 0.213318 -0.971537 0.103011 0.171885 0.248286 -0.953315 -0.639345 0.748228 -0.17718 0.300026 -0.479368 0.824737 -0.227819 0.885501 0.404953 0.405608 -0.635181 -0.657288 0.578343 -0.376833 0.723544 -0.87076 -0.388419 0.301511 0.455869 -0.606265 0.651633 0.692766 -0.604695 -0.392963 0.731996 0.619717 -0.283076 0.64058 -0.640393 0.423739 0.65554 0.422821 -0.625691 -0.929487 -0.314641 0.192495 -0.557937 0.576981 -0.596489 0.370376 0.046234 0.927731 0.105579 -0.836009 0.538462 -0.264796 -0.882243 -0.389269 -0.568219 -0.474568 -0.672244 0.1802 0.965482 -0.188073 -0.387116 0.114685 -0.914871 0.345628 -0.72727 0.592976 0.925743 -0.235216 0.296096 0.74535 -0.216143 -0.630663 -0.70714 0.681557 0.188239 0.326901 0.0258089 0.944706 0.94281 -0.258823 0.210049 -0.298411 0.805 -0.512762 -0.91223 -0.372965 0.169508 0.848985 0.285429 0.444697 -0.553577 0.112506 -0.825164 0.381929 -0.268506 -0.884327 0.209707 -0.492076 0.844917 0.131696 -0.511786 0.848959 -0.641849 -0.764028 0.0655122 0.395127 0.860725 0.320978 0.501423 0.67308 -0.543635 -0.0945155 0.442606 0.891721 -0.782597 0.552574 0.286713 0.320413 -0.856199 -0.405287 -0.720548 -0.125891 -0.681881 -0.823963 -0.506873 -0.253307 0.276877 0.770703 0.573895 -0.950387 0.300416 0.0807134 -0.681426 -0.199005 0.704312 0.162248 0.572517 -0.803679 -0.818054 0.504339 -0.276459 -0.691406 -0.66716 0.277228 0.562031 0.682006 0.467963 0.831569 0.453423 0.320782 -0.514402 0.842182 -0.161614 -0.0752988 0.990659 0.113684 -0.522789 0.540608 -0.659117 0.377855 0.918792 0.114225 -0.575599 0.80058 0.166602 0.923877 0.0290694 -0.381585 -0.77473 -0.367193 -0.514746 -0.237782 0.705859 0.66725 0.488603 0.564627 0.665179 -0.545957 0.756419 -0.360223 -0.278074 -0.250234 -0.927393 0.00193874 -0.980681 -0.195604 -0.129666 0.759125 -0.6379 -0.771511 0.234621 -0.591374 -0.602895 -0.773903 0.193885 0.496553 0.29341 -0.816912 -0.881296 0.260216 0.394469 -0.245823 -0.305563 0.919892 0.635471 -0.565779 0.525424 0.771145 -0.335816 0.540891 -0.00516674 0.950035 0.3121 -0.812645 -0.001894 -0.582756 0.634743 0.106557 -0.7