# vtk DataFile Version 4.0
Generated by libgran
ASCII
DATASET POLYDATA
POINTS 1686 FLOAT
-32.5813 2.17022 6.03973 -31.1212 1.49636 7.10499 -33.4066 2.23767 4.45895 -32.377 3.24399 5.52136 -32.9247 -1.24603 7.18153 -34.0467 2.77563 3.46533 -30.4 0.384319 11.7775 -29.8179 -1.22574 12.2086 -31.1482 0.933581 10.8253 -31.0571 -0.118391 9.38073 -30.8654 1.60595 9.45029 -30.3687 1.86552 8.26513 -28.9158 -2.73767 14.6756 -28.228 -2.17785 13.6848 -28.5571 -1.08012 13.7215 -28.3117 0.607892 13.316 -27.734 1.00429 14.0295 -27.919 1.60076 12.6485 -30.0791 -4.03876 12.5597 -31.37 -5.92476 13.6603 -30.8285 -4.7792 13.2573 -30.9966 -5.33403 14.9073 -31.5225 -6.71564 12.5963 -30.4198 -5.26584 15.9708 -31.5699 -4.48598 16.4242 -32.3242 -4.44299 17.3646 -31.4422 -3.68056 17.989 -30.9921 -4.89201 20.816 -32.5243 -5.00872 20.9805 -31.4874 -4.32334 19.607 -30.2898 -5.76745 21.529 -29.963 -7.53025 21.2736 -32.8736 -4.97596 22.6274 -30.3151 -4.06745 18.5898 -28.1615 -8.18595 19.3457 -28.8789 -9.42021 19.3865 -26.8816 -8.4798 19.1371 -25.7926 -8.48705 18.9284 -25.317 -7.03381 19.8967 -25.8668 -6.28707 21.3745 -25.1885 -5.56966 19.7528 -27.9839 -10.3087 20.4757 -19.8874 -13.1837 23.0834 -20.7868 -12.8194 22.1743 -22.1694 -13.5499 22.3533 -19.2428 -12.0709 24.5729 -20.5555 -11.7195 25.0778 -23.7073 -14.1968 22.7214 -25.3535 -12.1528 19.6727 -24.4393 -11.9988 18.618 -25.0173 -13.1904 20.4332 -26.4234 -12.5792 20.8065 -24.3453 -14.0513 21.6201 -27.0833 -11.2785 21.3461 -23.9693 -13.5978 17.8065 -24.4176 -14.9987 16.9589 -23.8351 -17.1851 17.8591 -23.851 -17.3607 16.541 -24.7665 -16.2657 16.7072 -22.2118 -16.8256 18.3326 -22.1577 -17.4921 15.6761 -20.5867 -17.0153 18.4086 -20.7252 -17.9514 19.0317 -22.186 -16.8637 11.5217 -23.3236 -17.0207 11.621 -23.0191 -15.3863 11.8637 -20.9084 -17.2089 11.6501 -21.4065 -18.2762 10.486 -20.2259 -16.6031 13.2759 -20.7012 -16.7854 14.8221 -36.93 16.7599 3.66073 -37.6188 16.3076 1.8556 -37.5494 15.3357 1.63067 -35.7167 17.3082 4.53922 -34.9259 17.1716 5.28759 -34.0313 17.557 5.06136 -34.1376 16.9832 5.87339 -40.7945 15.6167 2.10183 -41.8122 16.3299 1.63087 -39.9868 17.0152 1.48706 -39.8984 15.2511 2.64885 -40.9005 13.8295 2.24986 -41.5725 12.7576 2.72424 -42.1854 11.6175 3.46117 -46.5162 12.099 3.81606 -46.8632 11.1464 3.22461 -47.4377 13.376 3.18455 -45.7215 13.6486 4.79628 -43.1252 11.1077 3.51503 -42.3439 10.1182 2.5089 -42.9328 10.4232 1.36046 -42.7453 9.50261 0.709384 -42.3642 8.67847 2.00503 -43.0477 11.948 0.48924 -44.3827 10.9039 1.10924 -43.3667 12.3818 -0.736992 -42.5267 7.25657 1.51624 -42.5489 7.16274 3.13392 -44.9775 9.4212 -5.33267 -44.3166 9.31867 -6.48192 -45.1538 7.75815 -6.19768 -45.9087 11.047 -6.70195 -46.6891 10.47 -7.15099 -46.7022 11.0675 -5.34941 -47.9164 10.0443 -7.64991 -47.4826 10.4905 -5.79844 -45.9519 6.15947 -5.93154 -45.9882 11.2284 -3.30596 -46.8805 11.2535 -4.3058 -45.8776 11.0934 -2.09126 -46.0156 10.7968 -1.01545 -46.564 10.3419 -0.150645 -45.5807 10.2268 0.24545 -47.7573 11.5983 -0.0336869 -45.7143 11.4285 1.49066 -43.9619 6.10988 -8.86061 -42.9921 6.50524 -10.2124 -43.1443 5.10531 -8.83924 -44.2581 7.27716 -8.29683 -44.7753 8.50001 -8.50015 -46.3589 8.25439 -8.10871 -43.3671 3.46662 -8.47309 -47.4886 7.75724 -8.4653 -45.2021 2.72537 -4.9171 -44.782 4.0116 -4.87409 -45.9889 4.50924 -5.2963 -43.7939 5.35217 -4.91082 -25.2919 14.416 19.7852 -25.8884 15.1246 20.7391 -24.5807 15.8032 20.1105 -26.4916 13.3453 18.8398 -28.1172 13.1145 20.4316 -28.5022 10.7383 18.1961 -29.1075 12.4555 17.767 -29.0001 9.62158 17.8138 -28.2478 8.86585 18.012 -28.4887 12.6985 17.0199 -30.494 8.857 18.1721 -29.865 9.83018 16.6436 -30.634 8.14055 19.6933 -25.9234 5.70669 12.3572 -25.6699 4.62455 12.1174 -26.3193 6.76722 13.0548 -27.8194 6.0202 12.7776 -27.0897 3.73931 12.7619 -26.7749 3.50942 11.3111 -27.4672 3.01151 14.0991 -26.364 2.75635 10.1636 -25.9828 2.94925 9.17815 -28.9607 9.81529 15.4215 -30.2192 9.75408 14.9968 -27.8587 10.2306 14.6706 -30.2546 8.45403 13.7766 -31.4345 9.80332 13.9958 -30.7419 7.22547 13.5025 -29.3349 6.8343 13.1257 -33.6979 7.33874 5.0241 -34.8757 6.86981 4.623 -33.0551 8.21148 5.49701 -32.5813 6.59233 6.07541 -36.4507 6.39041 5.6394 -34.3545 4.83118 6.43989 -37.6368 7.03025 5.4697 -37.7696 7.11575 3.96317 -40.9376 6.05741 4.80669 -39.425 5.49015 4.53677 -42.1624 6.55705 4.6825 -42.8703 6.04655 3.06603 -38.5085 6.88113 3.27052 -38.6471 4.71028 5.62711 -32.0379 7.11491 11.3059 -31.6075 9.61453 10.7902 -32.7499 9.63272 12.117 -32.8343 9.77345 13.212 -33.5358 8.64706 13.5187 -31.9027 11.2972 13.597 -33.8171 7.22099 13.9376 -34.3416 4.29284 9.07045 -33.7018 4.29116 10.2361 -33.7139 4.37981 7.18795 -32.9232 4.66542 11.3342 -25.3655 23.2191 29.9065 -25.8888 21.9823 30.4187 -25.551 22.8279 31.4856 -24.9782 23.3311 28.6394 -25.3705 24.8326 29.1635 -26.0888 26.0428 29.1145 -22.5391 23.3576 30.0922 -22.4506 23.6677 32.4155 -23.3978 24.3481 33.4699 -22.0512 23.3848 31.1791 -21.5224 23.0266 30.2706 -23.2842 25.2335 30.5156 -23.4949 24.5223 34.6909 -25.3486 27.5283 34.6369 -25.0031 28.5397 35.4309 -26.0243 29.3541 34.6553 -25.6333 26.8737 33.7887 -24.6718 26.1571 33.5979 -23.44 29.1562 36.4505 -25.3703 25.2992 32.889 -20.734 26.1034 37.1967 -20.7884 24.8648 37.6774 -20.646 27.1748 36.9555 -19.6762 27.9878 37.6671 -20.7034 28.6841 37.027 -18.174 27.8629 38.5244 -18.3101 28.9872 37.8746 -21.7034 29.5502 36.6446 -19.7551 29.6519 36.3264 -27.8686 23.6025 34.8216 -28.3905 25.9401 34.7385 -30.6535 24.7796 36.5012 -30.4846 23.6305 35.6806 -30.0432 22.9417 33.9634 -26.5427 23.4572 34.7982 -31.6102 20.5262 32.074 -32.2253 21.3136 33.5589 -30.3584 20.4725 31.6253 -29.4926 20.2747 31.1658 -32.3953 22.3521 34.8163 -33.2305 21.8089 34.7304 -35.0692 22.0416 34.6567 -35.8821 21.8208 33.4117 -35.4111 20.9935 32.931 -37.107 22.9995 32.6224 -37.4987 22.7976 34.2863 -38.1099 23.3429 33.277 -36.3551 21.0097 34.8158 -37.702 23.8498 35.8315 -38.1254 24.7224 33.8962 -41.6206 23.7275 37.2939 -41.2917 24.8916 36.7419 -40.2205 24.295 36.2557 -38.8513 24.5211 35.9192 -41.7346 24.6519 34.1624 -37.8062 24.9243 35.5025 -34.1123 7.07573 22.9776 -33.9765 5.8444 23.4594 -35.4861 6.80494 23.8707 -32.8557 7.37613 21.9528 -34.1219 8.44597 22.4593 -31.3965 6.52785 21.1593 -30.4925 6.13626 20.0921 -30.9879 5.40924 19.3604 -29.4781 6.0672 19.0529 -31.4668 4.39461 18.6468 -31.0549 3.7389 19.856 -27.5229 5.05302 17.8604 -27.3849 6.1475 17.6039 -38.9458 7.14299 23.5202 -39.2197 6.12891 24.3354 -40.6699 5.69134 23.7439 -39.3259 8.42135 24.1975 -40.6778 8.08455 23.7261 -37.4056 5.49324 20.9538 -37.6315 6.80676 22.0512 -36.6077 5.04176 21.6031 -35.8262 4.60563 22.0492 -34.4138 5.42579 21.1621 -34.7739 4.01257 22.1921 -29.772 15.7016 23.4954 -30.7567 15.5222 24.3707 -29.3772 15.3872 25.3251 -28.7665 15.5128 22.6049 -29.7223 14.9997 21.7351 -31.8144 16.1519 24.7424 -31.3776 17.2392 26.0551 -30.3045 18.1022 27.4171 -32.1926 9.87238 21.049 -31.1092 9.80693 21.7782 -30.7187 10.9989 20.9225 -33.3289 10.5595 21.12 -33.9684 9.36506 21.7443 -29.5498 11.3939 21.6244 -29.6347 12.3903 21.6223 -29.3531 19.6206 27.7141 -29.1878 18.0578 27.5108 -30.0099 19.7174 29.9441 -31.4657 19.5163 28.9619 -28.6122 16.6206 27.7181 -27.6394 15.7162 28.5607 -31.3825 19.7099 26.5838 -32.1921 19.0174 27.7008 -31.4258 21.0384 26.6227 -33.0297 21.5642 26.2672 -34.6163 21.2212 26.3853 -34.6205 22.4326 24.5295 -6.37847 25.051 42.5352 -5.43631 24.8895 42.829 -7.68552 24.803 42.459 -5.95101 24.1608 42.3772 -8.40409 26.2339 43.1375 -9.35347 24.8168 42.7108 -9.23984 25.9151 42.6904 -9.16605 26.8652 42.9933 -5.45173 23.1374 42.9176 -4.205 23.4923 42.3601 -5.3546 21.4538 43.3467 -10.2061 23.8344 41.7303 -7.13949 20.1064 44.6757 -6.91192 20.8446 43.3461 -8.20771 19.1656 44.9246 -8.86724 18.3213 45.2534 -5.09335 20.9038 44.4502 -1.51407 24.543 43.514 -2.41883 24.6758 42.5487 -2.9016 23.5456 42.7098 -0.0594769 25.702 43.2609 -1.92876 26.103 41.8158 -3.24256 22.3353 42.7926 -1.69161 27.8964 41.6781 1.44359 29.6658 42.1023 1.79479 28.5673 43.2732 -1.27194 29.3576 40.9528 2.78657 27.7566 42.8607 -2.44383 29.2991 42.1927 -20.919 34.2565 43.264 -19.6386 33.9342 43.1068 -21.0555 34.8113 44.8676 -22.0798 33.6297 43.7541 -18.4679 33.5948 45.8761 -19.0012 34.3705 47.2231 -17.7888 32.6059 44.6252 -15.4461 30.9891 43.1687 -16.2911 31.22 44.1689 -14.7118 29.5325 43.4458 -17.3571 31.2968 44.3022 -17.4167 30.4579 45.5399 -16.5646 29.726 45.1829 -13.5782 29.5882 44.3056 -14.466 29.4009 44.9974 -17.4315 30.0872 47.0887 -11.9949 26.239 46.1364 -13.2154 26.7607 46.2454 -11.7174 26.4239 45.1936 -11.0294 26.19 45.8806 -13.4618 28.0038 46.9682 -14.0946 27.2866 47.9487 -13.9 29.4171 46.3792 -10.8026 27.3346 44.6612 -15.4737 29.3636 45.7342 -10.0949 28.6397 42.1147 -9.65024 27.3785 42.1172 -10.8722 28.6815 43.4629 -10.8851 29.6735 43.3375 -11.6467 28.8409 41.9268 -10.8661 29.2862 44.2592 -19.5563 37.3417 39.6209 -19.9567 37.5149 37.7656 -18.9547 38.4006 40.1559 -19.5871 39.7578 39.5584 -19.1368 39.9302 40.4345 -19.9972 40.3903 40.2155 -20.5393 41.2069 39.4558 -19.5941 36.9312 36.8924 -20.969 37.9126 36.9818 -19.1645 41.4051 40.712 -21.3971 44.2176 42.5811 -22.7627 42.9986 42.4368 -23.1655 43.7629 43.219 -22.6388 41.7682 41.4458 -23.817 41.6391 42.801 -21.3551 41.7996 40.137 -19.7066 42.2217 39.9524 -24.2111 45.7583 43.7205 -23.6708 46.1861 42.0453 -23.4558 46.2202 44.7125 -24.0434 44.5523 44.2075 -23.7328 45.8038 40.8396 -23.1044 47.2652 41.0754 -22.2088 44.8616 46.6485 -22.2629 45.1016 50.0069 -22.3827 46.0479 49.0804 -23.6889 46.3796 49.7014 -21.5299 45.7887 47.8035 -20.8095 47.1621 46.9083 -24.8803 46.3494 49.545 -16.5564 29.5631 40.8008 -15.7777 29.0195 39.8702 -15.9653 30.2829 39.2954 -15.5466 27.5403 40.3291 -17.0185 30.2561 38.2106 -14.6565 27.3945 41.7201 -13.1721 28.2047 41.8027 -18.3575 29.8658 37.1519 -18.5838 30.6651 35.7217 -17.8616 29.9893 35.8685 -17.67 30.8203 35.3462 -18.9722 32.1015 37.0932 -18.6229 31.8519 38.2584 -21.5882 30.8021 38.4713 -22.0314 31.6172 37.0923 -22.4075 35.5541 41.8078 -23.8763 34.6573 42.1057 -21.5891 34.6308 41.312 -21.8296 34.1147 40.1641 -24.6665 32.9
[...]
POINT_DATA 1686
FIELD FieldData 1
normals 3 1686 double
-0.557509 0.451038 -0.696957 0.902609 -0.222825 0.368302 -0.267777 -0.383592 -0.883829 0.761782 0.622731 0.17859 -0.678695 -0.664425 -0.312911 -0.372402 0.921554 -0.109792 -0.684452 0.728456 0.029621 -0.102371 -0.881603 0.460757 -0.0638008 -0.179194 -0.981743 0.154957 -0.872778 -0.462868 0.346623 0.851562 -0.393312 0.150121 -0.591988 -0.791842 -0.0417014 -0.942858 0.330575 0.646099 -0.383041 -0.660178 0.316946 0.714688 -0.623511 -0.071563 0.973322 0.217996 -0.649338 0.576922 -0.495502 0.464304 0.0195484 -0.88546 -0.992449 -0.114648 -0.0435943 -0.784541 -0.519778 -0.338121 -0.243008 0.625791 -0.74117 -0.411116 0.0709605 0.908817 0.632087 -0.271098 -0.725928 0.987957 -0.00277078 0.154707 -0.162136 0.777086 0.608152 -0.59225 -0.7341 0.332171 0.289844 0.0283329 0.956654 0.83041 0.102448 0.547653 -0.701804 -0.0142576 0.712227 0.335085 0.671118 -0.6613 -0.128089 -0.977881 0.165354 0.45484 -0.784918 -0.420744 0.352521 0.0470217 0.934622 0.837207 -0.41522 -0.355916 0.839105 0.352266 0.414501 0.121668 -0.881991 0.45529 0.440792 -0.646112 -0.62309 0.648228 0.638857 0.414321 -0.172645 0.814384 0.554051 -0.377134 -0.0676392 0.923685 0.301141 0.649764 -0.69794 0.773369 -0.00650493 0.633923 -0.215506 0.889594 -0.402716 -0.683892 -0.525295 -0.506317 -0.698712 -0.205255 0.685326 0.885859 0.454294 -0.0941909 -0.426809 0.805679 0.41075 -0.83919 -0.441686 -0.317291 -0.537182 -0.763879 0.357666 0.377018 -0.609931 -0.697023 0.873375 -0.273751 0.402835 -0.532704 0.337446 0.776117 -0.201281 -0.587188 0.784025 -0.127197 0.963275 -0.236477 0.092985 -0.989064 -0.114485 -0.541216 -0.41186 -0.733114 0.739129 -0.0641976 0.670497 0.723212 -0.239819 -0.647651 -0.192287 0.855138 -0.481419 0.88412 0.42368 -0.197047 0.970077 0.108432 -0.217238 0.741017 -0.613428 0.273129 0.879479 0.322652 -0.349875 0.60642 -0.53512 -0.588133 -0.531107 -0.692077 -0.48883 -0.226689 0.942359 -0.246115 0.671238 0.189966 0.716486 0.173056 -0.877323 -0.447612 0.0112081 0.415855 0.909362 -0.486461 -0.598214 0.636785 0.316265 0.111002 0.942154 -0.37251 -0.341347 -0.862971 -0.441958 0.630533 -0.638045 0.89709 0.437237 -0.0636626 -0.106293 -0.573845 0.812037 0.78826 -0.188365 0.585803 0.894552 0.38548 -0.226235 0.0295023 -0.862839 0.504617 -0.988166 -0.14965 0.0336537 0.837237 0.53563 -0.110159 0.866558 0.497273 0.0424028 -0.135514 -0.924382 -0.356586 -0.536424 -0.147472 0.830964 -0.0765495 -0.992622 -0.0940346 -0.551671 0.815521 0.174886 -0.898703 -0.137145 -0.416562 -0.369797 0.461493 -0.806396 -0.522093 0.846902 0.100873 0.863178 -0.482753 -0.147898 0.0819042 0.506682 0.858234 -0.507011 0.811613 -0.290215 -0.319553 -0.108933 -0.941286 0.0615579 -0.933082 0.354356 0.39206 0.713251 -0.581002 -0.942886 -0.330824 0.0389962 -0.711031 -0.279488 -0.64523 -0.223994 -0.488819 -0.843139 -0.246206 -0.582648 0.774535 -0.214222 0.78917 0.575604 0.446608 0.68664 -0.573643 -0.390606 -0.873883 -0.289407 -0.151423 0.564005 0.811769 -0.931802 -0.0130299 0.362732 -0.642025 -0.543471 0.540781 -0.295477 -0.412612 -0.861652 0.138358 0.0335648 0.989813 -0.407471 -0.724798 0.555549 0.428504 -0.754564 0.497009 -0.463762 -0.729442 -0.502831 -0.317911 0.619559 0.71769 0.179871 -0.916187 0.358117 -0.728282 0.46138 0.506689 0.255091 0.34628 0.902784 -0.464937 0.794949 -0.389731 -0.388767 0.855339 0.342425 -0.718352 0.264261 0.643535 0.251465 0.659619 -0.708285 0.0991732 -0.740308 0.664912 0.422137 0.903017 -0.0797506 -0.939383 0.31983 -0.123568 -0.644232 -0.565447 0.515008 -0.321927 -0.89839 -0.298761 -0.485443 0.068296 -0.871597 -0.416379 0.858442 -0.299508 0.836472 0.427784 0.342514 -0.37045 0.925428 -0.079692 0.151659 0.912783 -0.379245 -0.369311 -0.548877 -0.749896 -0.965839 0.159712 0.204077 0.341859 0.838372 -0.424577 -0.830377 -0.521792 -0.195468 -0.789964 -0.227376 -0.569436 0.437979 -0.89216 -0.11057 -0.167355 0.825074 -0.539671 -0.935838 -0.224518 -0.27166 -0.183589 -0.980254 -0.0734641 -0.786232 0.582106 0.207345 -0.558086 -0.540065 0.629976 0.0708855 0.433116 -0.898546 0.418068 -0.176382 0.891128 -0.910512 0.328324 0.251338 -0.656977 -0.753823 0.0114756 0.514574 0.732206 0.446193 -0.985498 -0.0148139 0.169038 -0.762882 -0.131408 0.633043 -0.448069 -0.3613 -0.817739 0.385363 -0.596401 0.704132 0.858945 -0.391767 -0.329744 -0.477706 0.584668 -0.655714 0.833405 -0.448005 -0.323617 -0.425111 -0.509216 -0.748318 0.268595 0.863333 -0.427215 0.389754 -0.790833 -0.471885 -0.790135 0.55845 -0.252627 -0.877069 -0.437727 0.197852 0.529968 -0.828906 -0.17902 0.453195 -0.0155078 0.891277 -0.724603 -0.484435 0.490178 0.189696 0.888249 -0.418365 0.663456 -0.7309 0.160034 -0.850334 0.00503589 0.526219 0.936449 -0.292381 -0.193845 -0.335739 0.634807 -0.695916 0.202896 -0.549308 -0.810613 -0.592041 0.476606 0.649873 0.92055 -0.0906521 0.37996 -0.632702 0.0230373 -0.774053 -0.0752067 -0.533539 -0.842425 0.941839 -0.314683 -0.117959 -0.1426 -0.68922 0.710381 0.438623 -0.779925 0.44646 -0.448312 0.46578 0.762932 -0.694072 -0.447592 0.563848 0.609697 0.58832 0.531177 -0.0918234 -0.538067 0.837886 0.321944 0.935407 -0.146172 -0.189409 -0.887999 -0.419025 0.331843 -0.0720166 -0.940582 0.971552 -0.0736946 0.22507 0.295847 0.158988 -0.941912 -0.1929 0.447956 0.872997 -0.256481 0.64593 -0.719021 -0.779765 -0.590934 -0.206794 -0.441997 0.254698 0.860098 0.643817 -0.533969 -0.548066 0.251524 0.967553 -0.0240094 -0.969806 0.242593 -0.0249853 0.723265 0.615413 0.313297 0.163946 -0.871215 -0.462717 -0.783264 -0.190784 0.591692 0.235392 0.588291 -0.773631 0.293403 -0.946426 -0.134878 -0.242536 -0.51074 -0.824816 0.686118 0.364991 0.629304 0.449531 -0.869593 -0.204277 0.795013 0.141843 0.589776 -0.226183 0.956192 -0.185845 -0.734279 0.215011 -0.643898 0.227275 -0.501573 -0.834728 0.768117 0.474652 0.429768 -0.925817 -0.356384 0.125906 0.113938 0.347606 -0.930692 0.0595009 -0.891027 -0.450034 -0.0259915 0.723789 0.689532 0.99577 0.0891938 0.0220593 -0.0314364 0.785486 -0.618081 0.506476 -0.21414 0.83524 0.370374 0.910202 0.185355 -0.968486 0.0806328 0.235655 0.979781 0.182275 -0.0824942 0.589169 -0.677227 -0.440731 0.930265 -0.153605 -0.333185 0.176745 -0.970615 0.163301 -0.00788188 -0.178497 -0.983909 0.449278 -0.510256 -0.73334 0.736793 0.531959 0.41732 0.499717 -0.71111 -0.494576 -0.115383 0.0763503 0.990382 0.752081 0.657471 0.0458936 0.113732 -0.855343 -0.505423 -0.0546068 0.96215 0.266993 -0.889781 0.418913 0.181115 -0.948871 -0.186238 -0.25487 -0.135948 0.0345782 0.990112 0.335043 -0.792645 0.509372 -0.480311 -0.507013 0.715709 0.0886512 0.305096 0.948186 -0.522625 0.850371 -0.061093 -0.337023 -0.845606 0.413963 -0.292042 0.747169 0.597034 0.507115 0.529224 0.680262 -0.888227 -0.417159 0.192434 -0.559284 0.746942 -0.359553 0.511945 0.150279 -0.845771 0.857217 0.0758704 0.509335 -0.535818 -0.772202 -0.341473 0.187882 0.327333 -0.926042 0.674519 0.673478 -0.302411 0.81032 -0.557855 0.179388 -0.699271 0.402689 0.590645 0.582149 -0.373078 -0.722437 -0.684043 0.696758 -0.2159 0.877003 -0.475203 -0.071045 0.0270352 0.0836123 -0.996132 -0.522467 -0.810626 0.264414 0.987335 -0.15267 -0.043139 0.0435587 -0.204004 -0.978001 0.455449 -0.859723 0.231176 -0.469335 0.470018 -0.747534 0.60736 0.624459 0.491086 0.382218 -0.262817 0.88591 -0.656205 -0.751262 -0.0707081 -0.793959 0.313688 -0.520797 -0.845159 -0.365235 0.390269 -0.506745 0.0284311 -0.861627 0.939267 0.339017 0.0533398 0.366109 -0.301541 0.880362 -0.141435 -0.790494 0.595916 0.923029 0.354359 -0.149827 0.489365 0.465797 -0.737262 0.129219 -0.947422 0.292735 0.0203902 -0.0549089 -0.998283 -0.964353 -0.234316 -0.122958 0.415155 -0.369249 0.831445 0.985117 -0.133829 0.107861 0.0292995 -0.646969 -0.761954 -0.0933021 0.864058 0.49467 0.530098 0.223284 0.81801 0.542982 0.639676 0.544045 -0.938245 -0.284994 0.196149 0.145142 -0.350441 0.92527 0.535702 0.841532 0.0696171 -0.198094 0.972157 -0.125177 -0.837527 -0.222332 0.499116 0.633148 -0.446553 0.63223 0.548231 0.549833 0.630179 0.408404 0.878719 -0.247101 0.573757 -0.684049 -0.450422 0.631049 -0.298053 0.716199 -0.824688 -0.499134 -0.265998 0.00178257 -0.753221 0.657765 0.971083 -0.151103 0.184839 0.711331 0.692224 -0.121796 -0.0982673 -0.000281854 0.99516 -0.754602 0.636201 0.1607 -0.849316 -0.110377 -0.516217 -0.737267 -0.232598 0.634299 -0.365319 -0.821976 -0.436917 -0.514701 -0.728681 -0.451782 0.427452 -0.890117 -0.158038 -0.792357 0.480707 0.375622 0.942153 -0.161438 0.293744 0.0737902 0.950176 0.302855 -0.875591 -0.466892 -0.123904 -0.76196 0.631361 -0.144223 -0.83575 -0.318814 -0.447078 -0.442869 -0.861986 0.246673 0.803866 -0.50714 -0.31082 0.539994 -0.821668 0.182396 0.0229554 -0.51552 -0.85657 -0.0744947 -0.92991 0.360164 0.153075 -0.191712 -0.96944 -0.993734 -0.0108845 -0.111237 0.334204 -0.833442 0.440094 -0.278743 0.271717 0.921125 0.887993 0.436844 0.143655 -0.0167666 0.569712 -0.821673 -0.499534 -0.560492 -0.660541 0.566601 0.722195 -0.396735 0.506837 0.857455 0.088806 0.158568 -0.649843 0.743344 -0.269692 0.93592 -0.226538 -0.142768 0.139356 -0.979897 0.208422 -0.959196 0.191059 -0.689363 -0.525357 0.498777 0.783364 0.148488 -0.603566 -0.482527 0.466829 0.741106 -0.563503 0.104479 0.819481 0.716914 -0.217793 0.662269 0.427074 0.450319 0.784105 -0.597281 -0.731288 -0.329352 0.798668 -0.376761 -0.469233 0.265396 0.398924 0.877738 -0.119522 -0.612103 -0.781693 0.330204 -0.851017 -0.408331 -0.514799 -0.620144 0.591949 0.404111 -0.605633 0.685495 -0.551191 0.696988 -0.45869 -0.610753 -0.141962 0.778992 0.241337 -0.873882 0.422002 0.729526 0.661386 0.174239 -0.158276 0.474114 0.86612 0.595889 -0.228672 0.769821 0.687984 -0.233939 0.686987 -0.532457 0.287686 0.79607 0.965492 -0.0490363 -0.255776 0.277507 0.184902 -0.942762 0.285977 0.955425 -0.0733479 -0.346741 0.238295 0.907186 -0.72418 0.45793 -0.51562 -0.0506721 0.959651 -0.276591 -0.849501 -0.511489 -0.129333 -0.796278 0.429068 0.426429 -0.351565 -0.832083 0.429 0.0189791 -0.38726 0.921775 0.00612248 0.604764 0.796381 -0.75547 -0.227804 -0.614305 -0.0128566 0.992024 -0.125393 0.373532 0.161748 0.913407 -0.026848 0.33487 -0.941882 0.228052 0.897102 -0.378417 -0.860402 0.460127 -0.21907 -0.410154 0.63252 0.657033 0.450247 0.172394 0.876104 -0.0918633 0.988938 0.116463 0.389417 -0.918498 0.0686732 -0.985428 0.0628283 0.158061 0.382481 0.842403 -0.37956 0.929811 0.35347 -0.102518 -0.435803 -0.865517 -0.246891 -0.838576 -0.101153 0.535311 0.55972 -0.364816 -0.744058 -0.618474 -0.493996 0.611112 0.72395 0.396198 -0.564733 0.924592 0.0258605 0.38008 0.128387 -0.315463 0.940213 0.668657 0.112363 -0.735032 0.626958 0.777329 0.0518129 0.0393274 -0.890532 -0.453217 -0.730559 -0.494735 -0.470659 -0.102208 0.966646 -0.234838 0.855827 0.223971 0.466259 0.7958 -0.502294 0.338235 0.675957 0.443955 -0.588206 -0.630275 0.77568 0.0327755 0.176901 -0.703117 -0.688718 -0.620174 -0.306719 -0.722016 -0.561049 -0.805879 -0.189164 0.72317 0.388034 -0.571362 0.0555312 -0.931599 -0.359221 -0.131994 0.331797 -0.934071 0.175646 -0.547574 0.818114 -0.921232 -0.358637 -0.150702 0.714434 0.401732 0.572883 0.769939 0.408449 -0.490268 -0.417799 -0.0316354 -0.907988 0.191502 0.831003 -0.522266 0.91377 0.155154 -0.375436 0.722267 -0.675848 0.14683 0.812617 0.320507 0.486754 -0.463317 -0.570121 0.678454 -0.738173 0.462806 -0.490827 0.294935 0.352299 -0.8882 0.969758 0.0320656 -0.241955 -0.499044 -0.864769 0.0559354 -0.15135 -0.955316 -0.253899 -0.0891114 0.4392 -0.893959 -0.291122 -0.809964 0.509123 -0.949513 -0.305094 0.0730939 -0.831737 0.451059 -0.323665 -0.242486 -0.554923 -0.795777 -0.0628535 -0.733582 0.676688 -0.508548 0.0288259 0.860551 0.359033 -0.903569 0.23379 0.67463 -0.0411241 -0.73701 0.0552589 -0.810886 -0.58259 -0.619371 -0.769763 0.154419 -0.448602 0.893688 -0.00880876 -0.617724 -0.185966 0.76409 0.213681 0.974583 0.067288 0.72671 0.216704 0.651868 0.234069 -0.650667 0.722388 -0.492641 -0.867371 0.0705206 0.128646 -0.974218 -0.185338 0.946781 0.130396 -0.294283 0.938086 -0.301925 0.169813 0.366202 0.895825 0.25178 -0.00549797 -0.0998457 0.994988 0.852695 0.130522 -0.505841 0.499587 -0.335145 0.798806 0.281291 0.257816 -0.924341 -0.654244 0.233229 0.719423 0.574019 0.613848 0.541934 -0.153391 -0.321025 0.934566 -0.929722 0.356488 0.0923792 0.967655 -0.0116979 -0.252007 0.0886706 0.751268 0.654014 0.0371749 0.944728 -0.325742 -0.335006 -0.942114 -0.0138695 -0.0514956 0.193461 -0.979756 -0.0307698 0.126889 0.99144 -0.185384 -0.442656 -0.877319 -0.940917 -0.337173 0.0314686 -0.118759 -0.104823 -0.987374 -0.447428 0.881856 -0.148789 0.0115354 0.693696 0.720175 0.918966 -0.352363 -0.177035 0.346982 -0.191174 0.918181 -0.361022 0.631795 -0.685929 -0.867846 -0.474294 -0.147947 0.829919 0.181431 -0.527557 0.225641 0.00935209 0.974166 -0.177549 0.839718 0.513177 0.343699 -0.148683 0.927235 0.30562 -0.703608 0.641508 0.556558 0.0682486 -0.828001 -0.392058 0.664816 -0.635854 -0.737536 -0.584295 -0.338585 0.973719 0.178699 0.1412 0.14726 -0.147996 -0.977963 -0.166458 -0.27514 0.946884 0.359652 -0.085956 0.929119 0.343112 -0.341035 -0.875197 0.165481 -0.986014 -0.0198006 0.826112 0.140784 -0.545637 0.561558 0.736941 0.37626 0.716216 -0.281922 -0.638401 0.846798 0.527772 -0.0662602 0.130583 0.809694 0.57214 0.701349 -0.583424 -0.409545 -0.908745 -0.267423 0.320419 0.119127 -0.976662 0.178717 -0.268057 0.220502 -0.93783 -0.951587 0.299458 0.0693392 -0.749788 -0.632329 -0.194877 0.40192 0.469846 0.785942 0.0727566 -0.963876 0.25622 0.822965 0.403628 0.399766 -0.285793 0.943796 -0.166048 0.791926 0.360612 0.49276 0.497479 -0.638953 -0.586731 0.713969 0.669281 0.205698 0.497955 -0.284125 0.819338 0.569559 -0.195729 0.798306 -0.425034 -0.903666 -0.0522953 0.104743 -0.0143758 -0.994395 -0.786051 0.358653 0.503479 0.00748492 -0.521867 0.852994 0.18808 -0.790857 0.582384 -0.699806 0.699475 0.144937 0.131396 0.159529 0.97841 -0.605204 -0.729477 0.318733 -0.625287 0.459114 -0.631055 -0.867196 0.214181 0.449554 0.897868 0.401845 -0.17987 -0.820891 0.569205 -0.0463056 -0.425136 0.706894 -0.565297 0.890857 0.438597 0.118351 -0.793872 0.0155408 -0.607887 0.609961 0.494667 -0.619074 0.0698157 0.948198 -0.309915 0.0350596 -0.591987 -0.805184 -0.71526 -0.492767 0.495564 -0.0978684 -0.824045 -0.558007 0.67639 -0.2088 -0.706328 0.134951 -0.66545 0.734142 0.774258 0.615244 -0.148321 0.95177 0.260117 -0.162706 0.355533 0.556015 0.751294 0.76041 -0.5883 0.2751 0.219916 0.377084 -0.899692 -0.284622 -0.541361 -0.791151 0.918742 -0.212394 0.33287 -0.944685 0.00731658 0.327897 -0.746988 0.206817 -0.631851 0.197697 0.1995 -0.959748 -0.118619 -0.956801 -0.265444 -0.774466 -0.632475 -0.0133186 0.257732 0.0139497 0.966116 0.893913 -0.279619 0.350332 -0.710372 0.0645244 0.700863 0.406851 0.424092 -0.809085 -0.0319167 0.976458 -0.213335 0.0296982 0.305063 -0.951869 0.0616149 -0.671396 -0.738533 -0.909972 -0.347879 -0.225678 -0.809953 0.0270312 -0.585872 -0.91367 0.0136101 -0.406228 0.278324 0.34011 -0.898254 -0.600365 -0.456421 0.65669 0.602917 -0.788675 0.120348 0.284107 0.956071 0.0721901 0.921583 -0.16275 0.352416 -0.427877 0.799279 0.421989 -0.279181 0.788205 0.548445 0.911293 0.23445 0.338494 -0.860653 0.329723 -0.38802 -0.538051 -0.269324 0.798728 0.407808 0.389765 -0.825697 -0.783494 -0.230701 -0.576988 0.91335 0.265942 -0.30833 -0.901515 0.414426 0.124587 -0.964009 -0.0690766 -0.256741 -0.353925 0.602608 0.715262 0.573221 -0.679108 -0.458507 0.945095 -0.129904 0.299867 0.95872 0.149889 -0.241639 0.114245 -0.990789 -0.0726959 0.133598 -0.314907 -0.939673 0.215855 -0.191454 -0.957472 -0.0669465 -0.0217571 0.997519 -0.896781 0.437581 0.0656306 0.316914 0.679872 0.661317 0.499033 0.776099 -0.385534 0.918723 -0.00444948 0.394877 -0.348735 0.805429 0.479236 0.444965 -0.186522 -0.875909 0.233356 0.465113 -0.853941 -0.374203 0.613834 0.695111 -0.425885 0.839733 -0.336854 0.994559 -0.103191 0.0142598 -0.262153 -0.350396 -0.899166 0.874676 -0.0451962 -0.482596 0.656917 -0.720526 0.22204 -0.505454 0.860885 -0.058255 -0.286139 -0.660374 -0.694284 0.137787 -0.960998 0.239788 -0.217759 -0.67533 0.704635 -0.202252 -0.845716 -0.49382 0.101182 -0.865674 0.490276 -0.972084 -0.0809131 -0.220239 0.80056 0.29961 -0.518977 -0.16038 0.523066 0.837066 0.333566 -0.00795471 -0.942693 0.186607 -0.979567 -0.0750022 -0.840865 0.388232 -0.377123 0.332817 0.916405 -0.222339 0.967671 0.250628 -0.0282555 -0.672469 -0.229529 -0.703635 -0.883171 0.0638615 -0.464684 0.128241 0.113588 -0.985217 -0.938195 0.21198 -0.273596 -0.980103 -0.0838097 -0.179929 -0.944701 -0.321566 0.0642979 -0.370459 0.81784 0.440338 0.637484 0.723979 -0.263569 0.713832 0.169664 -0.679454 0.632857 -0.739439 0.22961 0.252666 -0.91168 -0.324035 -0.796904 -0.110683 0.59388 -0.553869 0.812531 0.181722 0.301632 -0.57914 0.757374 -0.327958 0.706065 0.627627 -0.890933 0.232055 -0.390369 0.879174 -0.217172 0.424134 -0.610219 0.0493859 0.790692 -0.886088 0.285248 -0.365352 -0.655956 -0.0149003 0.754652 0.155753 0.0807239 0.984492 -0.440039 -0.875363 -0.200265 0.745223 -0.658279 -0.106355 -0.607685 0.266861 0.748 -0.313131 -0.775256 -0.548569 0.16604 -0.977283 -0.131717 -0.263037 0.261569 -0.928651 0.965597 0.0467447 0.255807 0.486167 -0.254994 0.835834 -0.267579 0.79921 0.538205 -0.150841 -0.731983 -0.664415 0.3174 -0.946043 -0.0652661 -0.557854 -0.582994 0.590692 0.587356 0.790294 0.174493 0.0614731 -0.53045 -0.845485 0.209504 0.279832 0.936911 -0.544998 0.802831 -0.241743 0.862742 0.423172 0.276769 0.358902 -0.825017 0.436504 -0.934207 -0.332661 -0.128814 -0.201695 0.842472 -0.499561 -0.690338 0.192403 0.697434 0.52781 0.703126 0.476477 0.789214 -0.600707 -0.12764 0.321438 0.0241217 0.946623 -0.230139 -0.0484401 -0.971951 0.150368 -0.849212 0.50619 -0.450224 0.551037 0.702607 -0.951179 0.226597 0.209552 0.0635223 0.474982 0.8777 -0.211767 -0.700247 0.681769 -0.910181 -0.227293 -0.346277 0.829003 -0.223255 0.512749 0.501147 -0.50313 0.704068 -0.383423 -0.889757 0.247628 -0.180619 0.807318 -0.561796 0.230368 -0.815972 0.530208 -0.687891 -0.364138 -0.627861 0.84897 0.472378 0.236875 -0.855003 0.209157 0.474576 0.227585 -0.969868 0.0869579 0.284689 0.299649 -0.910583 -0.636617 0.739625 -0.21834 0.138322 -0.400479 0.905805 -0.539435 0.80057 0.260956 0.728772 -0.504956 -0.462504 0.426764 -0.190557 0.884059 -0.785395 -0.612444 0.0898177 0.327839 -0.438767 0.836663 0.902138 -0.426151 -0.0673985 0.603598 0.785055 -0.13913 0.576435 -0.434383 0.692123 0.711098 0.581938 -0.394573 -0.821791 -0.557675 -0.116864 -0.425652 0.402757 -0.810313 -0.0224581 0.149103 0.988567 0.10897 -0.773093 0.624862 0.131429 -0.922196 -0.363705 -0.175617 -0.62046 -0.764322 0.0390732 0.963225 -0.265839 -0.138369 -0.0462629 -0.9893 0.302212 -0.584522 0.752995 0.859136 -0.0140591 0.511554 0.897258 -0.112876 -0.426834 -0.852893 0.514882 -0.0864258 0.00439383 0.155309 0.987856 0.867122 0.0337851 0.496949 -0.275652 0.694952 -0.664121 -0.866411 -0.499226 0.0102759 0.671837 0.459565 0.580891 -0.355246 -0.0499956 -0.933435 0.609154 -0.271966 -0.744961 0.0945896 -0.361669 0.927496 0.160793 -0.601745 0.782335 -0.566533 -0.822319 -0.0532069 0.298287 0.846287 0.441388 0.445147 0.782583 -0.435211 -0.161441 0.312998 0.935932 -0.839572 0.437281 0.322342 0.412155 -0.765061 -0.494782 -0.687629 -0.106277 -0.718242 -0.657798 -0.693702 -0.293392 0.159725 0.724 0.671053 -0.99359 0.0907844 -0.0673558 -0.692436 -0.347454 0.632304 0.141626 0.674653 -0.724421 -0.856395 0.429152 -0.287081 -0.570643 -0.781589 0.251964 0.511061 0.651375 0.560827 0.660811 0.609128 0.43851 -0.570392 0.729738 -0.377009 -0.233937 0.971718 -0.0322035 -0.418894 0.386466 -0.821689 0.211736 0.974068 0.0797418 -0.700413 0.710308 -0.0698826 0.973798 0.14195 -0.177674 -0.581317 -0.524482 -0.622085 -0.475291 0.712729 0.515863 0.24997 0.706032 0.662597 -0.576629 0.606062 -0.547894 -0.050698 -0.39001 -0.919414 0.103341 -0.943285 -0.315491 -0.187001 0.818439 -0.543313 -0.77533 0.234118 -0.586559 -0.528724 -0.845614 0.073401 0.486007 0.442479 -0.753664 -0.90913 0.122365 0.398132 -0.231409 -0.446096 0.864551 0.67772 -0.568461 0.466419 0.785648 -0.32873 0.524113 -0.109333 0.895537 0.431346 -0.791805 -0.00290088 -0.610767 0.6418