# vtk DataFile Version 4.0
Generated by libgran
ASCII
DATASET POLYDATA
POINTS 1686 FLOAT
-32.6328 1.34456 6.85218 -31.4413 0.648515 8.20003 -33.2444 1.30016 5.17631 -32.1909 2.28608 6.23439 -33.5185 0.594132 9.37324 -33.7027 1.76975 4.05562 -31.7771 -0.0856585 12.9241 -31.8468 -1.74652 13.5188 -32.1551 0.591536 11.844 -32.1455 -0.56638 10.4798 -31.5691 1.0715 10.4842 -30.815 1.08186 9.41182 -31.8652 -3.20833 16.1705 -30.9148 -3.01683 15.2605 -30.8278 -1.87488 15.205 -29.9692 -0.415799 14.7491 -29.3531 -0.162218 15.4949 -29.2168 0.329167 14.0676 -33.3313 -3.88261 14.1016 -35.5176 -4.22201 15.3734 -34.355 -3.85618 14.8418 -34.7211 -4.0236 16.5437 -36.2739 -4.66936 14.3691 -34.1925 -4.35126 17.5838 -34.3549 -2.95462 17.9832 -34.6639 -2.48231 19.0493 -33.3836 -2.49025 19.3813 -33.2358 -3.94429 22.0926 -34.1942 -2.9173 22.737 -33.4446 -3.00124 21.0451 -33.2731 -5.2031 22.5193 -34.4256 -6.54232 22.1224 -33.9382 -2.93939 24.4011 -32.6807 -3.55053 19.7844 -33.8492 -7.16061 20.1118 -34.6738 -8.2825 19.7939 -32.6042 -7.61379 19.9995 -31.5145 -7.8157 19.9626 -30.9765 -6.67735 21.2628 -31.6789 -6.05859 22.735 -30.5226 -5.28374 21.4439 -34.0362 -9.47855 20.7633 -25.8594 -11.7885 23.0983 -26.782 -11.2957 22.2774 -28.0349 -12.236 22.1241 -25.4947 -11.1275 24.94 -26.8823 -11.1598 25.3584 -29.4525 -13.1889 22.1627 -31.2774 -10.6389 19.6601 -30.2367 -10.0276 18.9423 -30.7868 -11.7949 20.0971 -32.3127 -11.5981 20.4474 -30.0502 -12.8341 21.0866 -33.174 -10.6704 21.3509 -29.215 -11.2178 17.9545 -29.102 -12.4006 16.742 -28.1777 -14.5733 17.3016 -27.7943 -14.3233 16.053 -29.0285 -13.5924 16.1381 -26.9701 -13.9776 18.3856 -25.9791 -13.7903 15.8214 -25.428 -13.7393 18.8835 -25.3211 -14.8493 19.0838 -25.19 -11.8499 12.2881 -26.1725 -12.355 11.9596 -26.5809 -10.9334 12.7567 -23.9324 -11.8335 12.7197 -23.7338 -12.4536 11.197 -23.8819 -11.7109 14.5794 -24.6425 -12.5416 15.7546 -35.9931 15.319 3.2022 -35.9923 14.7482 1.30175 -35.9187 13.7585 1.17923 -35.1563 15.8813 4.43837 -34.7152 15.7733 5.43734 -33.7741 16.0945 5.54248 -34.2198 15.5998 6.2885 -39.056 14.1087 0.415166 -39.8049 14.7989 -0.438643 -38.0343 15.4576 0.0647975 -38.4343 13.7689 1.27179 -39.2701 12.3362 0.613708 -40.0212 11.2691 0.964001 -40.7772 10.148 1.58865 -44.9337 10.697 0.476625 -45.006 9.80609 -0.284165 -45.4561 12.033 -0.429364 -44.5057 12.1967 1.72683 -41.6848 9.61423 1.3954 -40.6303 8.59777 0.719706 -40.8177 8.84515 -0.56965 -40.4593 7.88826 -1.0819 -40.5297 7.13275 0.306406 -40.6117 10.3068 -1.52807 -42.1108 9.33755 -1.26382 -40.5572 10.6755 -2.81439 -40.5831 5.68868 -0.139598 -41.0967 5.6856 1.39741 -41.0185 7.1786 -7.50644 -40.1132 6.89225 -8.43723 -41.1503 5.4441 -8.22703 -41.4194 8.69994 -9.21337 -42.1209 8.13448 -9.78942 -42.5123 8.93504 -8.11344 -43.226 7.74639 -10.5406 -43.2137 8.36959 -8.6895 -42.1422 3.94883 -8.01772 -42.3052 9.27696 -5.97999 -42.9198 9.25278 -7.17085 -42.5154 9.27168 -4.77097 -42.9833 9.0994 -3.76308 -43.8213 8.77576 -3.09339 -43.0307 8.62038 -2.39483 -44.8452 10.1333 -3.44625 -43.4721 9.91749 -1.32946 -39.5046 3.41375 -10.3094 -38.1669 3.58136 -11.3614 -38.8409 2.35017 -9.98351 -39.8197 4.65911 -9.96591 -40.1448 5.88456 -10.4096 -41.7925 5.80558 -10.4175 -39.4002 0.807492 -9.56369 -42.845 5.357 -11.0021 -42.106 0.460626 -6.96738 -41.4265 1.61989 -7.13177 -42.5599 2.3456 -7.39858 -40.2036 2.6967 -7.47793 -25.8506 12.9782 19.7662 -26.3225 13.9636 20.5241 -24.7638 14.0697 20.1706 -27.1508 12.2855 18.6221 -29.0187 12.836 19.7746 -29.6436 10.4137 18.0306 -29.7003 11.9554 16.9726 -30.329 9.34167 17.883 -29.8421 8.58059 18.4831 -28.9137 11.8068 16.3732 -31.9935 8.95836 18.0489 -30.8972 9.36141 16.5274 -32.575 8.75447 19.6195 -26.6783 4.10209 13.4466 -26.5141 2.98014 13.3621 -26.9995 5.3172 13.8806 -28.5462 4.62283 13.7774 -28.0051 2.29186 14.082 -27.716 1.89339 12.6627 -28.4927 1.63552 15.4205 -27.3503 1.09223 11.5326 -26.9859 1.28574 10.541 -29.7856 8.89454 15.6012 -30.9231 8.87553 14.9129 -28.4753 8.97355 15.1242 -30.8898 7.342 14.0033 -31.9731 8.76329 13.7441 -31.4267 6.10496 13.9455 -30.0158 5.57889 13.859 -33.2345 6.53165 5.70043 -34.2586 6.08719 4.9781 -32.7673 7.36175 6.40131 -32.3723 5.70008 6.91468 -36.0195 5.47448 5.49484 -34.1136 3.94557 6.72798 -37.1633 5.98186 4.96628 -36.88 6.00157 3.47834 -40.0556 4.70489 3.49945 -38.4872 4.26515 3.67086 -41.2094 5.15056 3.01462 -41.4308 4.57693 1.28353 -37.3714 5.68062 2.6202 -37.9589 3.57572 4.95455 -32.4524 5.62707 11.6713 -31.7259 7.88872 10.6639 -33.04 8.25236 11.7623 -33.2501 8.6303 12.7816 -34.0664 7.6304 13.2162 -32.2503 10.1489 12.9611 -34.5494 6.35606 13.8726 -34.6016 3.32532 9.29642 -34.1995 3.19233 10.5568 -33.6317 3.46042 7.56831 -33.597 3.47662 11.7849 -26.1839 23.3548 28.2712 -26.6286 22.0799 28.7642 -26.2053 22.8776 29.8374 -25.9307 23.5379 26.9788 -26.2908 25.0028 27.617 -27.029 26.1984 27.7088 -23.3795 23.5222 28.193 -23.051 23.7242 30.5064 -23.8859 24.3431 31.6863 -22.7809 23.5039 29.2233 -22.3477 23.1946 28.2486 -24.0899 25.367 28.7789 -23.854 24.4598 32.9175 -25.804 27.4723 33.1241 -25.4282 28.4385 33.9596 -26.4556 29.3027 33.2489 -26.1439 26.8425 32.2774 -25.1981 26.1314 32.0049 -23.8332 28.9835 34.9706 -25.934 25.2785 31.3285 -21.2162 25.9319 34.7113 -21.4115 24.6257 34.8657 -21.0657 27.0229 34.7412 -20.0412 27.6302 35.5715 -21.0916 28.4669 35.1889 -18.4936 27.2913 36.2767 -18.6474 28.5425 35.9363 -22.0965 29.4038 35.096 -20.1688 29.576 34.6939 -28.2385 23.7647 33.0673 -28.675 26.008 33.4777 -30.7717 24.9308 35.5329 -30.668 23.8205 34.6503 -30.2703 23.1837 32.9026 -26.9366 23.4949 32.9573 -32.0437 21.02 30.932 -32.6305 21.8547 32.4025 -30.7872 20.7774 30.5668 -29.9325 20.4545 30.1603 -32.7242 22.8721 33.6849 -33.6261 22.4714 33.5235 -35.3954 22.996 33.3377 -36.1424 22.9551 32.0339 -35.7598 22.0881 31.5448 -37.098 24.3748 31.2586 -37.5956 24.1585 32.892 -38.0298 24.8876 31.9074 -36.8319 22.1718 33.362 -37.6324 25.1294 34.5021 -37.7723 26.1948 32.6229 -41.5435 25.7814 35.8416 -40.9458 26.8765 35.3817 -40.01 26.0902 34.8858 -38.6113 26.0296 34.605 -41.4804 26.1336 33.6696 -37.4866 26.2193 34.2479 -36.5121 9.38535 22.3164 -36.6894 8.3708 23.1566 -37.9931 9.6559 23.0175 -35.1337 9.12335 21.4496 -36.178 10.5067 21.4347 -33.8654 7.78472 21.1708 -32.8945 7.00634 20.4218 -33.4249 6.30945 19.6852 -31.7582 6.47962 19.6835 -33.9934 5.30094 19.0312 -34.0899 4.86233 20.395 -29.956 4.79444 19.1759 -29.5252 5.79159 18.8554 -41.1929 10.517 21.9151 -41.8309 9.84832 22.8711 -43.2342 9.55288 22.1044 -41.3495 11.9831 22.1666 -42.6518 11.796 21.5092 -39.7224 7.94457 20.2133 -39.7876 9.53098 20.8899 -39.1724 7.54599 21.1081 -38.6024 7.10654 21.8023 -36.9088 7.32919 21.0698 -37.7664 6.39587 22.3272 -30.1884 16.055 22.4468 -31.3158 16.1421 23.1464 -30.1671 15.7985 24.3273 -29.167 15.4908 21.7554 -30.0789 15.2517 20.7332 -32.2835 16.9526 23.3913 -31.811 17.9194 24.7835 -30.7486 18.5648 26.2688 -33.8743 11.0017 19.9741 -32.913 10.6726 20.797 -32.135 11.6586 19.9437 -34.7902 11.9408 19.7553 -35.7698 11.1086 20.5125 -30.9418 11.7293 20.7092 -30.7421 12.709 20.6899 -29.6108 19.9093 26.7123 -29.6639 18.347 26.4526 -30.4392 20.0218 28.8849 -31.8187 20.0736 27.781 -29.4315 16.8068 26.5691 -28.8307 15.6259 27.417 -31.5005 20.3481 25.4315 -32.4957 19.7374 26.441 -31.3498 21.6614 25.5752 -32.8573 22.4177 25.2134 -34.4751 22.257 25.2889 -34.3932 23.5962 23.5874 -5.92802 24.6934 38.0554 -4.93563 24.6452 38.1687 -7.17894 24.2368 38.105 -5.41216 23.948 37.6331 -7.96378 25.3395 39.1969 -8.7614 23.8985 38.5814 -8.81091 24.9783 38.8071 -8.82136 25.8404 39.3138 -4.68436 22.9401 37.8409 -3.61898 23.6221 37.2158 -4.26861 21.2505 37.8684 -9.64052 23.0338 37.517 -5.52564 19.4585 39.1815 -5.63527 20.3903 37.9632 -6.3619 18.3033 39.4146 -6.80646 17.3186 39.7125 -3.72392 20.5855 38.7902 -0.980146 24.9044 38.2087 -2.09946 25.043 37.5044 -2.29498 23.8244 37.3893 0.104942 26.4314 38.0902 -2.0838 26.6863 37.1677 -2.4458 22.585 37.2185 -2.22846 28.4545 37.5472 0.504164 30.8069 37.906 1.32557 29.5776 38.624 -2.28678 30.1097 37.2401 2.31695 29.1667 37.8119 -3.07345 29.4422 38.6002 -20.8324 31.6965 42.3958 -19.6159 31.26 42.0834 -20.894 31.6934 44.097 -22.0803 31.1214 42.7002 -18.3277 30.1311 44.4883 -18.7119 30.4839 46.0466 -17.7672 29.5057 42.9721 -15.4436 28.68 41.0537 -16.2204 28.4886 42.1157 -14.491 27.3397 40.869 -17.2705 28.3549 42.3139 -17.102 27.209 43.2614 -16.191 26.7493 42.6715 -13.3045 27.3362 41.6561 -14.0924 26.8266 42.3053 -16.9263 26.3718 44.6047 -11.2155 23.8671 42.2898 -12.4493 24.1737 42.686 -11.092 24.3551 41.4257 -10.2955 24.0188 41.9282 -12.7383 25.1173 43.7605 -13.119 24.0681 44.5545 -13.4139 26.5513 43.6067 -10.3461 25.4907 41.1041 -15.0156 26.4276 43.0459 -10.1321 27.5654 39.0211 -9.52007 26.4324 38.6606 -10.7063 27.1099 40.3946 -10.8239 28.0849 40.5831 -11.7063 27.6137 39.0789 -10.6377 27.4496 41.3326 -19.9427 34.9997 39.7255 -20.0976 35.936 38.0727 -18.98 35.4506 40.525 -18.9178 37.05 40.3324 -18.5893 36.7875 41.2397 -19.1494 37.6084 41.129 -19.1913 38.7403 40.6242 -19.9621 35.5843 37.0275 -20.7828 36.9658 37.5557 -18.0802 38.0114 41.9439 -19.2145 40.6604 44.5663 -20.9277 40.3335 43.992 -21.0844 40.8816 45.0085 -21.1802 39.5784 42.6219 -22.5158 39.5961 43.8289 -19.8093 39.4305 41.4133 -18.1221 39.1433 41.4392 -21.0808 42.6719 46.4137 -19.9922 43.3169 45.1173 -20.4832 42.2098 47.5079 -21.6674 41.5056 46.2898 -19.9438 43.434 43.8573 -18.7858 44.1958 44.6727 -20.6103 39.7545 48.562 -21.4642 38.6623 51.6174 -20.8516 39.7873 51.2609 -21.9471 40.51 51.9533 -19.9142 39.6189 50.0288 -18.411 40.5801 49.904 -22.8962 41.2243 51.7695 -16.6826 28.3002 38.7533 -15.9863 28.0378 37.6514 -16.1879 29.4115 37.4671 -15.699 26.4985 37.6499 -17.3156 29.6839 36.4971 -14.6297 26.0021 38.8155 -13.1795 26.8665 38.9439 -18.7214 29.5735 35.4591 -19.0171 30.7047 34.2891 -18.2997 30.0116 34.2187 -18.1243 30.946 33.9086 -19.3032 31.7766 35.9935 -18.9002 31.2206 37.0282 -21.8584 30.1914 37.0658 -22.3561 31.3867 36.0236 -22.0917 33.6074 41.5638 -23.6891 32.91 41.6744 -21.4613 32.7669 40.7486 -21.8866 32.667 39.5441 -24.7607 31.2976 41.6
[...]
POINT_DATA 1686
FIELD FieldData 1
normals 3 1686 double
-0.387975 0.421401 -0.819693 0.803502 -0.274646 0.52816 -0.223603 -0.465799 -0.856173 0.829886 0.520119 0.201904 -0.282192 0.856581 0.432016 -0.234706 0.935384 -0.26452 -0.387045 0.915598 -0.108977 -0.456809 -0.745268 0.485697 0.00901924 -0.238404 -0.971124 0.000533512 -0.919513 -0.39306 0.576934 0.718364 -0.388716 0.177199 -0.707996 -0.683624 -0.415885 -0.83448 0.361501 0.534547 -0.642987 -0.548478 0.621496 0.498966 -0.603967 0.237159 0.960117 0.148088 -0.378965 0.706536 -0.597655 0.515252 -0.215152 -0.829593 -0.804863 0.590837 -0.0557409 -0.943759 0.198577 -0.264362 0.218811 0.564405 -0.79597 -0.147309 0.396983 0.905927 0.18745 -0.645927 -0.740028 0.675952 -0.724641 0.134109 0.513532 0.671996 0.533578 -0.822527 -0.199682 0.532519 0.457757 -0.207618 0.864496 0.727472 -0.639669 0.248209 -0.230931 0.387321 0.892555 0.518716 0.303378 -0.799309 -0.764731 -0.619138 0.17848 -0.387799 -0.720091 -0.575396 0.486965 -0.409415 0.771521 0.245146 -0.85267 -0.461366 0.815517 0.15135 0.558592 -0.00910291 -0.970539 0.240771 0.429468 -0.60453 -0.670896 0.660227 0.40262 0.634033 -0.122197 0.735736 0.666153 -0.580159 -0.116981 0.806059 0.576132 0.657865 -0.485062 0.646784 -0.225513 0.72857 -0.345995 0.929158 -0.130206 -0.576643 -0.436377 -0.690694 -0.676277 -0.503853 0.537385 0.793454 0.585771 0.165235 -0.594125 0.553454 0.583698 -0.741316 -0.44907 -0.498785 -0.389561 -0.920667 0.0247832 0.651072 -0.309426 -0.693081 0.880146 -0.235395 0.412229 -0.645803 -0.0385683 0.762529 -0.143603 -0.803827 0.57727 -0.215422 0.966296 0.140942 0.370659 -0.880778 -0.294691 -0.257645 -0.301981 -0.917838 0.519593 -0.0910777 0.849545 0.903038 0.158895 -0.399092 -0.331156 0.889811 -0.313962 0.688027 0.686751 0.234502 0.91213 0.374093 0.167552 0.854125 -0.448458 0.263355 0.747283 0.66151 0.0630341 0.871003 -0.0623871 -0.487301 -0.111537 -0.567573 -0.815733 -0.519894 0.854026 -0.0187006 0.38656 0.0787522 0.918896 0.585178 -0.541342 -0.603751 -0.336063 0.0438302 0.940819 -0.424508 -0.874562 0.234381 -0.049973 0.175492 0.983212 -0.0491658 -0.395291 -0.917239 -0.122764 0.594423 -0.794727 0.886796 0.38679 0.252957 -0.445782 -0.494708 0.746018 0.495391 -0.173553 0.851156 0.941173 0.321155 0.105137 -0.186247 -0.828731 0.527746 -0.935132 -0.138608 -0.326063 0.835459 0.520141 0.177377 0.807965 0.488912 0.328875 -0.0278475 -0.943848 -0.329205 -0.723264 -0.123174 0.679498 -0.0327199 -0.997958 -0.0548545 -0.532347 0.845826 -0.0344281 -0.604643 -0.0451191 -0.795218 0.00991316 0.490188 -0.871561 -0.482868 0.871781 -0.0826794 0.87486 -0.464185 0.138393 -0.179625 0.552269 0.814084 -0.366997 0.799643 -0.475272 -0.00865543 -0.157242 -0.987522 -0.07905 -0.912756 0.400784 0.572983 0.662012 -0.483148 -0.926111 -0.307245 -0.218902 -0.518527 -0.293327 -0.803174 0.0256929 -0.53131 -0.846788 -0.487872 -0.53439 0.690223 -0.264874 0.865104 0.425955 0.640453 0.57876 -0.504833 -0.396669 -0.869393 -0.294636 -0.287091 0.663484 0.690918 -0.988532 0.098028 0.114866 -0.805732 -0.428379 0.409007 -0.116627 -0.486117 -0.866076 -0.104287 0.137076 0.985056 -0.595244 -0.62588 0.503943 0.216337 -0.721934 0.657275 -0.398244 -0.746113 -0.533589 -0.426591 0.716661 0.55174 -0.0412468 -0.888945 0.456153 -0.796768 0.565301 0.213531 -0.00619263 0.409923 0.912099 -0.227182 0.792207 -0.566389 -0.435218 0.887184 0.153262 -0.831717 0.390649 0.394513 0.505961 0.558253 -0.657539 -0.167961 -0.672934 0.720381 0.516603 0.854702 -0.0510427 -0.841661 0.370753 -0.392619 -0.806092 -0.449732 0.384652 -0.391417 -0.869746 -0.300557 -0.246323 0.00115204 -0.969187 -0.276326 0.907628 -0.316 0.955873 0.251638 0.151611 -0.177537 0.977348 -0.115202 0.267044 0.825169 -0.497778 -0.391415 -0.481443 -0.784224 -0.863354 0.503911 -0.0263584 0.695379 0.610068 -0.379822 -0.908764 -0.211284 -0.359871 -0.705152 0.0202752 -0.708766 0.21048 -0.937859 0.275897 0.153718 0.603793 -0.78218 -0.895906 -0.134208 -0.423486 -0.409035 -0.89528 0.176536 -0.6329 0.752342 -0.18281 -0.768536 -0.249095 0.589325 0.327701 0.153949 -0.932154 0.187018 0.0451969 0.981316 -0.885419 0.43408 0.166154 -0.721239 -0.687865 0.0815802 0.564148 0.781033 0.267814 -0.982544 0.0866604 0.164614 -0.769739 -0.000419311 0.638358 -0.480678 -0.398886 -0.780922 0.282051 -0.655918 0.700157 0.846321 -0.402278 -0.34916 -0.481916 0.595793 -0.642486 0.783935 -0.620814 0.00593659 -0.353544 -0.639823 -0.682373 0.526389 0.699817 -0.482878 0.386837 -0.893709 -0.227248 -0.696479 0.527576 -0.486396 -0.923796 -0.34333 0.169484 0.487084 -0.869402 0.083001 0.22375 -0.10192 0.969303 -0.800295 -0.546381 0.246974 0.243518 0.932013 -0.268421 0.638441 -0.729655 0.244943 -0.960639 -0.0663343 0.269764 0.953205 -0.301504 -0.0222787 -0.183115 0.573713 -0.798325 0.466392 -0.553996 -0.689614 -0.778752 0.44502 0.442157 0.789624 0.00527803 0.613569 -0.375095 0.000648355 -0.926986 0.153702 -0.574278 -0.804102 0.957752 -0.233045 0.168529 -0.261358 -0.694715 0.670122 0.279506 -0.7144 0.64149 -0.523578 0.64627 0.555158 -0.790566 -0.282631 0.543254 0.580516 0.660565 0.476083 -0.235764 -0.339332 0.910642 0.419286 0.858026 -0.296632 -0.247263 -0.935012 -0.254191 0.498547 -0.0485446 -0.865502 0.900609 -0.181538 0.394902 0.471355 0.183649 -0.862611 -0.298015 0.465828 0.833182 -0.339213 0.675426 -0.654779 -0.783877 -0.599455 -0.161835 -0.360561 0.198287 0.911415 0.592453 -0.492318 -0.63767 0.232372 0.972627 0.00059301 -0.970551 0.222966 0.0911934 0.748198 0.608131 0.265284 0.120535 -0.84674 -0.518172 -0.714337 -0.227896 0.661654 0.149594 0.626403 -0.76501 0.283591 -0.935751 -0.209632 -0.321285 -0.473375 -0.820178 0.746189 0.344619 0.569596 0.433671 -0.863486 -0.257529 0.80952 0.102656 0.578048 -0.217846 0.966921 -0.132694 -0.773562 0.233634 -0.589082 0.172258 -0.477447 -0.86161 0.785431 0.442394 0.43288 -0.908176 -0.375403 0.18517 0.122738 0.561776 -0.818134 -0.0725646 -0.744449 -0.663724 0.0277072 0.529204 0.848042 0.99679 0.0780668 -0.0177576 -0.0535741 0.914816 -0.400302 0.550822 -0.41695 0.723013 0.397022 0.834245 0.382635 -0.951321 0.0220848 0.307408 0.976358 0.194312 -0.0947033 0.522008 -0.49677 -0.693345 0.851753 -0.161926 -0.498293 0.112466 -0.987569 0.109814 -0.00873517 -0.122669 -0.992409 0.406447 -0.514138 -0.75529 0.7799 0.226946 0.583312 0.414723 -0.768221 -0.48769 -0.172034 0.0665196 0.982842 0.841838 0.525659 0.122441 0.0128242 -0.848565 -0.528935 0.0783102 0.950864 0.299542 -0.823561 0.550155 0.138117 -0.945752 -0.0255197 -0.323887 -0.198765 0.0153547 0.979927 0.183789 -0.851644 0.49084 -0.609364 -0.433662 0.663787 0.111682 0.217344 0.969685 -0.322497 0.946452 -0.0149572 -0.49077 -0.798709 0.34815 -0.148465 0.753574 0.640379 0.579987 0.360734 0.730401 -0.96512 -0.222791 0.137507 -0.367487 0.872361 -0.322396 0.568297 0.0860248 -0.818314 0.830423 -0.146608 0.537498 -0.389571 -0.81473 0.429476 0.294275 0.33627 -0.894609 0.828722 0.414281 -0.376286 0.65147 -0.600263 0.463974 -0.652295 0.684835 0.324826 0.549659 -0.676276 -0.490434 -0.494664 0.707025 -0.505394 0.718677 -0.662354 0.211638 0.252164 -0.116024 -0.960704 -0.782526 -0.580867 0.224158 0.884217 -0.410693 0.222469 0.214082 -0.427644 -0.878231 0.117491 -0.866252 0.485595 -0.139754 0.4145 -0.899254 0.570607 0.582647 0.578731 0.162827 -0.0704343 0.984137 -0.800835 -0.598221 -0.028195 -0.602453 0.302773 -0.738498 -0.95917 -0.0685187 0.274404 -0.343185 -0.118668 -0.931741 0.973627 0.148707 0.17302 0.138426 -0.105801 0.984705 -0.423716 -0.547294 0.721758 0.993788 0.107844 -0.0274942 0.699793 0.114807 -0.705059 -0.157835 -0.818515 0.552378 0.167675 -0.129032 -0.977362 -0.959744 -0.0419496 -0.277727 0.188994 -0.38547 0.903158 0.853709 -0.435175 0.286014 -0.0581149 -0.674287 -0.736179 -0.00789503 0.852531 0.522616 0.480316 0.114269 0.86962 0.582115 0.531113 0.61568 -0.992581 0.00193233 0.121567 -0.0312467 -0.327128 0.944463 0.746715 0.658862 0.0912036 0.0767293 0.937166 -0.340342 -0.902898 0.10503 0.416825 0.446515 -0.588173 0.674297 0.646266 0.391485 0.655042 0.555675 0.813365 -0.172228 0.502634 -0.748891 -0.431881 0.519466 -0.415868 0.746465 -0.860096 -0.364046 -0.35736 -0.270235 -0.791379 0.548354 0.87096 -0.389498 0.299532 0.812078 0.582931 -0.0268304 -0.183138 -0.0278194 0.982694 -0.661416 0.730365 0.170576 -0.846072 0.0259258 -0.532438 -0.771731 -0.186637 0.607946 -0.447264 -0.74179 -0.499702 -0.476529 -0.697193 -0.535576 0.515861 -0.745373 -0.422263 -0.774392 0.240651 0.585153 0.992391 -0.0481805 0.113312 -0.0104431 0.862049 0.506717 -0.80806 -0.578979 -0.108729 -0.857578 0.500883 0.116946 -0.847135 -0.361166 -0.389771 -0.26459 -0.959725 0.0944453 0.800786 -0.277652 -0.530709 0.680341 -0.729836 -0.0669035 -0.0710652 -0.285652 -0.955695 0.145338 -0.964734 0.219468 0.0357036 -0.0328922 -0.998821 -0.981599 -0.190467 0.0136693 0.537035 -0.794229 0.284243 -0.135649 0.0648728 0.988631 0.791606 0.600069 0.11523 -0.327708 0.738653 -0.589067 -0.523224 -0.479922 -0.70421 0.293482 0.926958 -0.233704 0.343367 0.904657 0.252378 0.372395 -0.759466 0.533417 -0.488027 0.863522 0.127122 -0.391039 0.337317 -0.856333 0.430369 -0.891978 -0.138411 -0.429709 -0.791726 0.434188 0.561006 0.481125 -0.67364 -0.356964 0.124212 0.925823 -0.547048 -0.0946392 0.831734 0.669478 -0.531122 0.519336 0.485439 0.0915105 0.869468 -0.700818 -0.480421 -0.527304 0.745634 -0.173908 -0.643263 0.361487 0.178885 0.915056 -0.18513 -0.451476 -0.872867 0.408441 -0.641622 -0.649228 -0.368359 -0.833026 0.41277 0.544123 -0.698669 0.464535 -0.681823 0.69933 -0.214603 -0.51328 -0.446553 0.732894 0.397733 -0.906279 0.14306 0.642386 0.695178 0.322596 -0.145507 0.185555 0.971801 0.688997 -0.390692 0.610445 0.796472 -0.336275 0.502545 -0.437394 -0.0296134 0.898782 0.919934 0.151705 -0.361534 0.123462 0.48798 -0.864079 0.148447 0.973179 0.175745 -0.23222 -0.0760081 0.969689 -0.824021 0.460844 -0.329564 -0.173983 0.983938 0.0399527 -0.777683 -0.584569 -0.231278 -0.760457 0.179819 0.623995 -0.148424 -0.953184 0.263459 0.186253 -0.635296 0.749472 0.0686444 0.339699 0.938026 -0.813727 -0.131487 -0.56618 -0.117608 0.974995 0.188554 0.340307 -0.327506 0.881437 0.185441 0.608757 -0.77138 0.622386 0.77841 -0.0819303 -0.56016 0.820955 -0.110697 -0.231611 0.558422 0.796569 0.328549 -0.262532 0.907266 0.28667 0.869359 0.402537 -0.0499458 -0.960474 -0.273853 -0.870611 0.421084 0.25441 0.740665 0.665507 -0.0922842 0.994536 -0.101038 0.0262406 -0.718628 -0.427989 -0.548087 -0.875282 0.120135 0.468453 0.466158 -0.327094 -0.822014 -0.869514 -0.309338 0.385039 0.904692 0.179199 -0.386548 0.782545 -0.466382 0.412446 -0.294356 -0.662397 0.688901 0.794162 -0.0174542 -0.607455 0.891966 0.200295 0.405312 -0.292258 -0.503895 -0.812819 -0.74568 0.134622 -0.652563 0.412319 0.896372 0.162819 0.695353 -0.485383 0.529988 0.325412 -0.943589 0.0612063 0.938026 0.181427 -0.295281 -0.157498 0.904164 0.397091 -0.000678244 -0.349778 -0.936832 -0.46731 0.39928 -0.788794 -0.791557 -0.189913 -0.580836 0.687619 0.53179 -0.494348 0.00866296 -0.794255 -0.607522 -0.19287 0.579502 -0.79182 0.278681 -0.745033 0.606021 -0.934833 -0.30716 -0.178156 0.790649 0.248609 0.559525 0.659499 0.615792 -0.431117 -0.471028 0.196815 -0.859882 0.175403 0.93439 -0.310078 0.892737 0.241235 -0.38056 0.717334 -0.693155 -0.0704813 0.848254 0.164726 0.50332 -0.445272 -0.720689 0.531357 -0.747344 0.605061 -0.274551 0.249681 0.590193 -0.76768 0.949097 -0.0365999 -0.312852 -0.648341 -0.734018 -0.202166 -0.318744 -0.803825 -0.502262 -0.106591 0.703898 -0.702258 -0.423301 -0.8783 0.222275 -0.989484 -0.136021 0.0491999 -0.764249 0.643779 -0.0383706 -0.464109 -0.262533 -0.845978 -0.0466585 -0.896219 0.441152 -0.423415 -0.205477 0.882326 0.320438 -0.94433 -0.0745645 0.615185 0.156386 -0.772717 -0.0361921 -0.601956 -0.797709 -0.651377 -0.758342 -0.0249936 -0.615306 0.787863 0.0258782 -0.650281 -0.396871 0.647788 0.000988206 0.976802 0.214143 0.545271 0.337019 0.767527 0.28995 -0.628743 0.721534 -0.25532 -0.965762 -0.0459924 0.17429 -0.982334 -0.068138 0.936075 0.337647 -0.0987824 0.96541 -0.196491 -0.171392 0.299183 0.950795 -0.080487 0.388009 0.122535 0.913474 0.552184 0.00699547 -0.833693 0.820376 -0.056095 0.569066 -0.163739 0.0747332 -0.983669 -0.32904 0.336497 0.882328 0.621053 0.779187 0.0846221 -0.365479 -0.509749 0.778833 -0.893839 0.447908 0.0207248 0.987701 -0.11838 -0.102142 0.0049232 0.519076 0.854714 0.187433 0.982197 -0.0125867 -0.448918 -0.81643 -0.3632 0.18251 0.463121 -0.8673 -0.238093 -0.150182 0.959561 -0.0236134 -0.149948 -0.988412 -0.90897 -0.274703 -0.313548 0.136943 0.225494 -0.964572 -0.383253 0.9206 -0.0749117 -0.161232 0.542468 0.824459 0.932942 -0.350476 -0.0823695 0.161218 -0.38438 0.908989 -0.129 0.651798 -0.747341 -0.827893 -0.417137 -0.374953 0.948436 0.125207 -0.291191 -0.035503 -0.0022567 0.999367 -0.23113 0.856225 0.462015 0.0803649 -0.167808 0.982539 0.0811928 -0.727627 0.681151 0.715502 -0.0118138 -0.69851 -0.0781255 0.628309 -0.774031 -0.599856 -0.575165 -0.556199 0.858678 0.149342 0.490274 0.489794 -0.236579 -0.839126 -0.527902 -0.186286 0.828624 -0.0137734 -0.0739394 0.997168 0.483729 -0.182721 -0.855932 0.303572 -0.946923 -0.105736 0.917594 0.199673 -0.343732 0.476581 0.647808 0.594319 0.820963 -0.190413 -0.538296 0.851904 0.484395 0.199049 0.0309417 0.674807 0.737345 0.757736 -0.529404 -0.381534 -0.964537 -0.257668 0.0572295 0.0517292 -0.99717 0.0545581 -0.000178547 0.234511 -0.972114 -0.931167 0.31248 -0.187842 -0.712026 -0.582689 -0.391781 0.265061 0.334531 0.904341 -0.00769992 -0.992307 0.123564 0.871467 0.489852 -0.024303 -0.407744 0.874357 -0.263143 0.877966 0.474116 0.0662617 0.315096 -0.770991 -0.553433 0.67289 0.701963 -0.233381 0.774742 -0.0760348 0.627689 0.834959 0.0463781 0.548354 -0.330442 -0.863457 0.381117 -0.260895 -0.325085 -0.908985 -0.591644 0.478384 0.648926 0.371283 -0.256962 0.892255 0.470058 -0.591761 0.654877 -0.669465 0.719407 0.185121 0.452576 0.447021 0.771588 -0.371404 -0.594943 0.712813 -0.853624 0.250945 -0.456456 -0.668672 0.351529 0.655213 0.727353 0.333979 -0.599513 -0.837496 0.534108 0.115454 -0.689028 0.481649 -0.54153 0.732565 0.675666 -0.0826077 -0.84346 -0.284332 -0.455774 0.325721 0.581382 -0.745588 -0.151606 0.812598 -0.562761 -0.185526 -0.795551 -0.576783 -0.439539 -0.335253 0.833313 -0.171798 -0.951047 -0.256895 0.360165 -0.358113 -0.861415 0.453387 -0.432148 0.779544 0.531963 0.592934 -0.60452 0.746451 0.25863 -0.613124 0.540768 0.744037 0.392401 0.825532 -0.557926 0.0849479 -0.249301 0.025183 -0.968099 -0.556926 -0.687752 -0.465652 0.985545 -0.153367 -0.0719747 -0.663255 0.278804 0.694522 -0.961025 0.123418 -0.247385 -0.29777 -0.155386 -0.941907 -0.0884777 -0.996044 -0.00824519 -0.630131 -0.640368 0.439163 0.644145 0.215124 0.734029 0.982592 -0.18156 -0.0393542 -0.343148 0.187965 0.920282 -0.0246243 0.285614 -0.958028 -0.159275 0.935316 -0.315937 -0.420975 0.161384 -0.8926 -0.2617 -0.773933 -0.576663 -0.874174 -0.407899 0.263509 -0.988921 -0.0281465 -0.145751 -0.992364 -0.116186 0.0414104 -0.17319 0.140023 -0.974884 -0.201476 -0.321039 0.925387 0.682226 -0.731038 -0.0122961 0.176433 0.953983 -0.242464 0.994843 -0.0656242 -0.07734 -0.287055 0.847847 0.44582 -0.228301 0.694815 0.681991 0.884394 0.46665 -0.00922509 -0.995865 0.0907386 -0.00448296 -0.188565 -0.400834 0.896535 -0.0433221 0.562993 -0.825326 -0.860841 -0.402927 -0.310808 0.636564 0.540692 -0.549945 -0.936072 0.0417951 0.349316 -0.762797 0.575518 -0.294823 -0.374164 0.172264 0.911222 0.378152 -0.55314 -0.742319 0.640666 -0.744881 0.186277 0.971884 -0.21419 -0.0977963 -0.11523 -0.894561 -0.431837 0.147252 0.0162315 -0.988966 0.341345 0.0644421 -0.937726 0.181578 0.0719594 0.98074 -0.954808 0.0633855 0.290386 0.156852 0.822637 0.546503 0.0406874 0.857879 -0.512238 0.907484 0.388505 0.159804 -0.526285 0.672522 0.520326 0.287971 -0.117626 -0.950388 -0.151957 0.405859 -0.901215 -0.430979 0.512921 0.742408 -0.799302 0.547168 -0.24844 0.934289 0.277367 -0.223991 -0.198989 -0.780207 -0.593026 0.80685 -0.0403863 -0.589375 0.866823 -0.343073 0.361827 -0.745064 0.58425 -0.321763 -0.155727 -0.966701 -0.203072 0.466579 -0.645635 0.604533 0.0599735 -0.302687 0.951201 0.0294853 -0.999042 0.0323229 0.48157 -0.431092 0.763053 -0.932166 -0.339099 0.126799 0.590349 0.107387 -0.799972 -0.16541 0.850254 0.499708 0.179359 -0.473477 -0.862351 0.253932 -0.89016 0.378329 -0.919632 0.156227 -0.360376 0.169742 0.842425 -0.511378 0.912497 0.352216 -0.208072 -0.67306 -0.689974 -0.266319 -0.921251 -0.371136 -0.116426 -0.0575999 -0.54191 -0.83846 -0.988634 -0.143018 -0.0463566 -0.873235 -0.414013 0.257007 -0.790048 -0.308061 0.530022 -0.525571 0.847591 -0.0732425 0.353475 0.428181 -0.831695 0.524127 -0.247577 -0.81486 0.849806 -0.304601 0.430172 0.299856 -0.9202 -0.251633 -0.691191 -0.102557 0.715358 -0.63187 0.762161 0.140894 0.473436 -0.407853 0.780714 -0.170073 0.809923 0.561337 -0.995316 0.0843272 -0.0472818 0.994574 -0.0566782 0.0872372 -0.200051 0.198511 0.959465 -0.97819 0.205434 0.03069 -0.250945 0.12828 0.959464 0.48824 0.334405 0.806099 -0.411636 -0.891744 0.188011 0.664231 -0.676147 -0.318783 -0.191807 0.406911 0.893103 -0.535548 -0.814863 -0.221781 0.157214 -0.987143 -0.0288361 -0.638641 0.147866 -0.755165 0.955312 0.154763 -0.251849 0.847312 -0.0546152 0.528279 -0.140761 0.835204 0.531621 -0.294137 -0.842131 -0.451994 0.387309 -0.91923 -0.0707725 -0.131566 -0.487335 0.863246 0.452113 0.873035 -0.182767 -0.0912735 -0.377883 -0.921343 0.55751 0.498394 0.663917 -0.707746 0.698637 -0.104892 0.823194 0.515798 -0.237285 0.632254 -0.683931 0.363998 -0.85104 -0.424716 0.308783 -0.501249 0.718029 -0.482891 -0.341425 0.296026 0.892075 0.587939 0.805567 0.0734191 0.730978 -0.584055 -0.352917 0.67655 0.219298 0.702985 -0.601557 -0.24464 -0.760447 0.450783 -0.720346 0.527158 -0.17931 0.666191 0.723904 -0.801213 0.202576 0.563046 0.364947 0.656544 0.660124 0.225034 -0.480145 0.847833 -0.921586 -0.338884 0.189306 0.993953 -0.0467939 0.0993337 0.825382 -0.364892 0.43081 -0.0868679 -0.827142 0.555239 -0.539503 0.651598 -0.533251 0.49587 -0.675445 0.54579 -0.859876 -0.481274 -0.170261 0.830188 0.4904 -0.265133 -0.573042 0.349887 0.741082 0.318552 -0.925941 0.202874 -0.144503 0.0534258 -0.988061 -0.728762 0.674396 -0.118731 0.461016 -0.498941 0.733841 -0.308878 0.796802 0.519327 0.381003 -0.529948 -0.757622 0.7058 -0.360929 0.609571 -0.776672 -0.510689 0.368751 0.600783 -0.59874 0.529688 0.694184 -0.485581 -0.531337 0.615192 0.726167 -0.306953 0.738519 -0.623152 0.257432 0.508864 0.499555 -0.701072 -0.861953 -0.383111 0.332058 -0.690557 0.553738 -0.465301 0.525343 0.0256271 0.850504 0.245241 -0.852253 0.462084 -0.280102 -0.87788 -0.38842 -0.59943 -0.482211 -0.638871 0.055339 0.990899 -0.122703 -0.520682 0.139771 -0.842232 0.495648 -0.72718 0.474912 0.975286 -0.151594 0.160737 0.67394 -0.0960797 -0.732512 -0.725774 0.600833 0.335039 0.445387 -0.0116582 0.895262 0.984468 -0.162456 0.0665684 -0.403963 0.80523 -0.434072 -0.862226 -0.440484 0.250081 0.874948 0.321614 0.36198 -0.646066 0.101502 -0.756503 0.29095 -0.177378 -0.940152 0.375042 -0.50143 0.779687 -0.111128 -0.47348 0.873766 -0.82177 -0.569818 0.00113074 0.574622 0.743069 0.343011 0.723899 0.480282 -0.495277 -0.0719109 0.506625 0.859162 -0.639685 0.749282 0.171404 0.131552 -0.930901 -0.340761 -0.648889 0.0220591 -0.760563 -0.89616 -0.284954 -0.340144 0.396306 0.707644 0.584963 -0.829341 0.553897 -0.0734246 -0.782854 0.0120278 0.622089 0.388117 0.472136 -0.791488 -0.605239 0.713148 -0.353703 -0.873681 -0.408197 0.264683 0.601616 0.604448 0.522208 0.834354 0.49438 0.243809 -0.580316 0.812059 -0.0615882 -0.120262 0.979017 0.164508 -0.632049 0.528328 -0.566907 0.324552 0.939268 0.111542 -0.601715 0.74961 0.275725 0.887679 0.0986679 -0.449768 -0.780011 -0.429357 -0.455231 -0.240497 0.711648 0.66009 0.477189 0.535096 0.69711 -0.487574 0.784873 -0.382422 -0.281553 -0.248584 -0.926787 -0.246348 -0.954739 -0.166694 0.148728 0.727831 -0.669434 -0.602744 0.397707 -0.691758 -0.81144 -0.568372 0.136083 0.647798 0.0906583 -0.756399 -0.818893 0.514785 0.253794 -0.434831 -0.157541 0.886624 0.384061 -0.672326 0.632831 0.585877 -0.49292 0.643256 0.218043 0.935375 0.2784