# vtk DataFile Version 4.0
Generated by libgran
ASCII
DATASET POLYDATA
POINTS 1686 FLOAT
-31.9058 1.20699 6.70772 -30.751 0.692057 8.16448 -32.3948 1.02536 5.00112 -31.5102 2.15551 6.06962 -32.8839 0.506382 9.2058 -32.8358 1.39102 3.83566 -31.4249 0.0873207 12.8918 -31.556 -1.53322 13.5801 -31.6955 0.726205 11.7575 -31.4956 -0.481225 10.4521 -31.0741 1.20272 10.4122 -30.2536 1.23819 9.39035 -31.7207 -2.81371 16.3141 -30.7227 -2.68667 15.4446 -30.6225 -1.55117 15.321 -29.7461 -0.123758 14.8029 -29.1036 0.185223 15.5042 -29.0434 0.597638 14.047 -33.1036 -3.60256 14.2477 -35.3543 -3.77123 15.451 -34.1613 -3.49849 14.9309 -34.5838 -3.51684 16.6279 -36.0944 -4.25028 14.4492 -34.1034 -3.78688 17.7071 -34.21 -2.35749 17.9936 -34.5015 -1.83238 19.0397 -33.2185 -1.84617 19.3608 -33.1474 -3.2335 22.0843 -33.9262 -2.09244 22.7771 -33.2739 -2.26011 21.0515 -33.3356 -4.51678 22.3774 -34.6102 -5.66056 21.7887 -33.6061 -2.1712 24.4284 -32.5492 -2.90772 19.8146 -34.0472 -6.03379 19.7254 -34.9621 -7.00549 19.217 -32.8481 -6.58168 19.5521 -31.7861 -6.89654 19.5021 -31.1713 -6.04774 20.9777 -31.8529 -5.57693 22.5131 -30.5632 -4.764 21.3816 -34.4725 -8.39766 19.9909 -26.6246 -11.7403 22.0859 -27.475 -11.0589 21.3241 -28.806 -11.8463 21.0312 -26.2484 -11.3613 24.0033 -27.6434 -11.3137 24.3946 -30.3072 -12.6552 20.9246 -31.8115 -9.6378 18.7685 -30.6906 -9.02978 18.1805 -31.4398 -10.8865 19.0344 -32.9532 -10.6042 19.3804 -30.836 -12.1118 19.8921 -33.7526 -9.74719 20.4028 -29.7353 -10.1559 17.06 -29.6805 -11.1609 15.6929 -28.9444 -13.4572 15.952 -28.4861 -13.0504 14.7717 -29.6728 -12.2542 14.9215 -27.7644 -13.1117 17.1671 -26.6284 -12.6313 14.6951 -26.2283 -13.0389 17.731 -26.1726 -14.1705 17.7253 -25.5764 -10.2209 11.5895 -26.5634 -10.6211 11.1487 -26.9514 -9.35002 12.1767 -24.3344 -10.3309 12.0514 -24.1048 -10.6756 10.448 -24.3433 -10.5321 13.9049 -25.2049 -11.4977 14.8922 -36.2384 14.7298 2.63711 -36.066 14.1801 0.738267 -35.8732 13.2063 0.617522 -35.5418 15.3724 3.92022 -35.1481 15.3063 4.94231 -34.2571 15.7315 5.1015 -34.6846 15.1825 5.81974 -38.9798 13.1972 -0.320517 -39.7529 13.8019 -1.21649 -38.104 14.6588 -0.608719 -38.3721 12.9244 0.569506 -38.9986 11.4103 -0.137073 -39.6257 10.2573 0.183382 -40.2802 9.04815 0.756352 -44.362 9.23359 -0.690773 -44.2578 8.39808 -1.50863 -44.9403 10.5665 -1.5668 -44.2184 10.6839 0.677336 -41.1121 8.43305 0.481355 -39.9124 7.54656 -0.132344 -40.0075 7.82225 -1.42606 -39.527 6.91596 -1.93017 -39.6536 6.10973 -0.574777 -39.8426 9.32145 -2.33305 -41.2788 8.23617 -2.20641 -39.7206 9.72933 -3.6028 -39.5319 4.68274 -1.06056 -40.1946 4.58202 0.41484 -39.6044 6.35356 -8.42043 -38.6261 6.16425 -9.30086 -39.5522 4.63277 -9.18282 -40.0281 7.88032 -10.117 -40.6464 7.27511 -10.7455 -41.1986 7.99927 -9.08007 -41.6707 6.81867 -11.5694 -41.8169 7.39406 -9.70858 -40.4294 3.05798 -9.06391 -41.1445 8.3029 -6.93151 -41.6847 8.25949 -8.15735 -41.4236 8.25035 -5.73766 -41.9443 8.01273 -4.76977 -42.8017 7.60576 -4.17412 -42.0549 7.48805 -3.42206 -43.8961 8.89658 -4.56386 -42.6726 8.71346 -2.35946 -37.6281 2.79396 -11.2036 -36.2496 3.09473 -12.1698 -36.9 1.77915 -10.8602 -38.0632 4.001 -10.8543 -38.4607 5.20721 -11.2917 -40.0933 4.99658 -11.4001 -37.3552 0.18652 -10.5063 -41.0698 4.4799 -12.0558 -40.1701 -0.441418 -8.08458 -39.5789 0.772373 -8.18424 -40.7503 1.41135 -8.50374 -38.4298 1.95214 -8.43439 -26.0242 12.8769 19.5322 -26.4412 13.9119 20.2553 -24.8644 13.8738 19.9762 -27.3254 12.2885 18.3322 -29.1854 13.0184 19.3751 -29.9439 10.6454 17.6827 -29.8147 12.1304 16.5525 -30.7042 9.62511 17.5346 -30.3218 8.85784 18.199 -29.0166 11.8848 16.0022 -32.3997 9.369 17.6006 -31.1813 9.64051 16.1443 -33.0921 9.25117 19.1347 -26.6887 4.40035 13.0349 -26.4911 3.28093 13.0083 -27.0249 5.63445 13.3983 -28.5467 4.88303 13.4646 -27.9022 2.59074 13.8729 -27.7025 2.12042 12.4603 -28.2761 1.98679 15.2714 -27.3897 1.28574 11.3386 -27.1176 1.45024 10.3127 -30.0164 9.10529 15.327 -31.1015 9.07062 14.5593 -28.6831 9.11903 14.9114 -30.9923 7.52077 13.6839 -32.13 8.8897 13.38 -31.4744 6.26036 13.6556 -30.0415 5.79449 13.5884 -32.9601 6.29828 5.37294 -33.8545 5.74006 4.56281 -32.6658 7.171 6.11484 -32.1063 5.56614 6.65526 -35.5638 4.90624 4.91854 -33.6037 3.64761 6.35788 -36.709 5.26346 4.28152 -36.299 5.31657 2.82424 -39.2787 3.64248 2.5852 -37.6871 3.40399 2.88948 -40.4204 3.98371 1.99769 -40.4146 3.4531 0.23895 -36.6682 4.94064 1.928 -37.1772 2.77322 4.2102 -32.3515 5.73161 11.3736 -31.6831 8.02253 10.3592 -33.0849 8.31972 11.3654 -33.3624 8.68613 12.3727 -34.143 7.6438 12.7716 -32.4666 10.2625 12.5977 -34.6055 6.35029 13.405 -34.1941 3.10419 8.92162 -33.8629 3.07652 10.2091 -33.133 3.24979 7.24885 -33.3715 3.48247 11.4524 -26.0704 23.3901 27.9473 -26.5753 22.1301 28.4199 -26.129 22.8957 29.5072 -25.7959 23.5775 26.6598 -26.0986 25.049 27.3126 -26.7849 26.2745 27.4119 -23.2607 23.4359 27.8991 -22.9482 23.5955 30.218 -23.7682 24.2358 31.3967 -22.6742 23.3791 28.935 -22.2447 23.063 27.9608 -23.8963 25.3028 28.5009 -23.7445 24.3351 32.6297 -25.563 27.4289 32.8543 -25.1542 28.3675 33.7056 -26.1351 29.2845 32.9953 -25.921 26.8248 31.9965 -25.0043 26.0762 31.7248 -23.5465 28.8293 34.7377 -25.7695 25.2645 31.0304 -21.0531 25.6696 34.4517 -21.301 24.3701 34.586 -20.8647 26.7541 34.4982 -19.8211 27.3044 35.3441 -20.8314 28.1913 34.9669 -18.2948 26.8886 36.0547 -18.3919 28.1501 35.7317 -21.7942 29.1721 34.881 -19.858 29.2664 34.4944 -28.1575 23.8329 32.726 -28.499 26.088 33.16 -30.6661 25.0802 35.1773 -30.6011 23.9777 34.2815 -30.2108 23.3456 32.5304 -26.8672 23.5085 32.626 -32.0521 21.2767 30.5215 -32.6195 22.1228 31.9931 -30.803 20.9848 30.1669 -29.9583 20.6295 29.7666 -32.6841 23.1321 33.2837 -33.6004 22.7718 33.1088 -35.3436 23.373 32.9089 -36.0773 23.3784 31.5969 -35.7256 22.502 31.1015 -36.9646 24.8455 30.8287 -37.4887 24.6311 32.4542 -37.8814 25.3891 31.4739 -36.8132 22.609 32.9081 -37.5029 25.584 34.0753 -37.5778 26.676 32.2077 -41.3982 26.3787 35.3805 -40.7514 27.4543 34.9416 -39.8429 26.6369 34.4453 -38.4447 26.5229 34.1788 -41.2964 26.7558 33.2141 -37.3092 26.6697 33.8358 -37.1272 10.3092 21.5081 -37.4609 9.33378 22.3471 -38.6204 10.7352 22.0973 -35.7191 9.89575 20.7558 -36.6252 11.3679 20.6285 -34.5614 8.44125 20.6057 -33.6092 7.56123 19.9512 -34.133 6.88034 19.1952 -32.4628 6.93268 19.3153 -34.713 5.88085 18.5374 -34.9541 5.51569 19.905 -30.7454 5.11774 18.9863 -30.228 6.07607 18.6756 -41.6127 11.8975 20.7222 -42.3944 11.3163 21.6272 -43.7509 11.1499 20.7459 -41.6375 13.3766 20.9432 -42.8924 13.3104 20.1789 -40.2785 9.15524 19.1806 -40.2357 10.7532 19.8318 -39.8497 8.72001 20.1233 -39.3883 8.23701 20.8675 -37.6257 8.26267 20.2782 -38.6781 7.45939 21.4761 -30.2034 16.2985 22.0349 -31.3458 16.4258 22.7034 -30.2442 16.0355 23.9142 -29.2012 15.6712 21.3704 -30.0938 15.5036 20.3174 -32.2893 17.2705 22.9263 -31.8175 18.2131 24.3352 -30.7692 18.8132 25.8492 -34.1848 11.6038 19.333 -33.319 11.2204 20.2347 -32.3946 12.1006 19.4123 -34.9924 12.6121 19.0174 -36.0959 11.9004 19.7253 -31.2314 12.0649 20.225 -30.9484 13.024 20.2224 -29.5947 20.1136 26.3272 -29.6979 18.5554 26.0587 -30.4685 20.2287 28.4822 -31.8236 20.3374 27.3525 -29.522 17.0076 26.1754 -28.9816 15.8007 27.0271 -31.4422 20.6286 25.0146 -32.4791 20.0372 25.9933 -31.2512 21.9311 25.2014 -32.7398 22.7347 24.864 -34.3598 22.6024 24.947 -34.2664 23.9907 23.2875 -5.75432 23.8992 37.7324 -4.76113 23.8416 37.8337 -7.00901 23.4554 37.7996 -5.25115 23.1468 37.3074 -7.76929 24.571 38.8958 -8.58873 23.1351 38.297 -8.62472 24.2165 38.5182 -8.62033 25.0809 39.0209 -4.53088 22.1326 37.5109 -3.4666 22.8011 36.8695 -4.12919 20.4401 37.5564 -9.49537 22.2832 37.2456 -5.26609 18.6647 38.9024 -5.41557 19.5552 37.6577 -6.00798 17.4476 39.1401 -6.37722 16.4382 39.4574 -3.57047 19.8013 38.4882 -0.819482 24.087 37.8175 -1.9641 24.2132 37.1527 -2.13872 22.9928 37.0245 0.22859 25.6391 37.6917 -1.99157 25.8613 36.8411 -2.30259 21.7537 36.8637 -2.15706 27.6204 37.253 0.539819 30.0226 37.5473 1.41031 28.8018 38.2205 -2.25886 29.2783 36.9728 2.37486 28.4191 37.3636 -2.98246 28.576 38.3502 -20.4437 31.2312 42.2153 -19.248 30.7425 41.8999 -20.5186 31.1835 43.9153 -21.7231 30.7161 42.4954 -18.0274 29.4976 44.2858 -18.4063 29.8338 45.8491 -17.4804 28.8829 42.7604 -15.1819 28.0314 40.816 -15.9584 27.844 41.8789 -14.2639 26.6707 40.6072 -17.0106 27.7335 42.0803 -16.8664 26.5701 43.0103 -15.9698 26.0965 42.4094 -13.0742 26.6262 41.3884 -13.8716 26.127 42.034 -16.7065 25.692 44.3292 -11.0789 23.095 41.9521 -12.2994 23.4294 42.3669 -10.9507 23.594 41.095 -10.1588 23.2269 41.5831 -12.5543 24.3634 43.4583 -12.9519 23.3119 44.2407 -13.1943 25.816 43.3279 -10.1763 24.7135 40.7843 -14.8011 25.7403 42.7732 -9.91739 26.8176 38.7362 -9.32115 25.6769 38.3735 -10.4951 26.3545 40.1056 -10.5837 27.329 40.3119 -11.4891 26.9094 38.8061 -10.4106 26.6756 41.0489 -19.3853 34.5511 39.626 -19.4958 35.5339 37.9968 -18.4002 34.934 40.4336 -18.2577 36.5291 40.2481 -17.9631 36.249 41.1618 -18.481 37.0959 41.0411 -18.4574 38.2297 40.5396 -19.3791 35.2015 36.943 -20.13 36.6085 37.5066 -17.413 37.4457 41.8819 -18.4496 40.0055 44.5277 -20.169 39.8174 43.9112 -20.3096 40.3259 44.9505 -20.442 39.1363 42.5067 -21.8006 39.2011 43.6863 -19.0601 38.9465 41.3167 -17.3895 38.5795 41.3804 -20.1743 41.9782 46.4944 -18.9756 42.5924 45.2831 -19.6711 41.3802 47.57 -20.8733 40.8922 46.2667 -18.8745 42.752 44.0309 -17.6878 43.3858 44.9118 -20.0857 38.8777 48.4204 -21.1844 37.6684 51.3458 -20.4437 38.7456 51.1024 -21.4894 39.5267 51.8083 -19.473 38.5677 49.8978 -17.8774 39.3736 49.9028 -22.3453 40.3535 51.6392 -16.4519 27.7643 38.5442 -15.7641 27.4975 37.4381 -15.9052 28.8827 37.2856 -15.5276 25.9502 37.3975 -17.0161 29.2245 36.3182 -14.4617 25.3907 38.5374 -12.9831 26.2051 38.6678 -18.4177 29.1902 35.2692 -18.6556 30.3498 34.114 -17.9684 29.6273 34.0382 -17.7504 30.5576 33.743 -18.9077 31.407 35.8322 -18.5362 30.8207 36.8618 -21.5353 29.9166 36.8623 -21.9785 31.1526 35.8434 -21.5986 33.2227 41.4348 -23.2299 32.6056 41.5265 -21.0111 32.372 40.5985 -21.4422 32.322
[...]
POINT_DATA 1686
FIELD FieldData 1
normals 3 1686 double
-0.367722 0.343418 -0.864202 0.787062 -0.171513 0.592551 -0.121207 -0.525044 -0.8424 0.763363 0.605108 0.226099 -0.376522 0.850219 0.367911 -0.319827 0.890698 -0.323059 -0.361047 0.915476 -0.177621 -0.492097 -0.705062 0.510615 0.0904634 -0.276591 -0.95672 0.109459 -0.930839 -0.348651 0.530905 0.753111 -0.38854 0.289629 -0.717646 -0.633324 -0.441696 -0.80707 0.391845 0.556246 -0.680029 -0.477651 0.656471 0.455467 -0.601328 0.21996 0.971949 0.0832688 -0.422558 0.662967 -0.617997 0.4827 -0.250552 -0.839181 -0.790508 0.594777 -0.146072 -0.925676 0.217961 -0.30922 0.267263 0.4907 -0.829327 -0.155238 0.472346 0.867635 0.185583 -0.697016 -0.692624 0.635682 -0.742383 0.211602 0.529106 0.687002 0.498071 -0.820627 -0.161886 0.548055 0.462395 -0.175681 0.869095 0.644206 -0.735136 0.211126 -0.134541 0.405925 0.903949 0.51777 0.238255 -0.821674 -0.832366 -0.54814 0.0819086 -0.442264 -0.595639 -0.670535 0.454589 -0.484688 0.747279 0.206885 -0.885868 -0.415255 0.812231 -0.020224 0.582985 -0.102657 -0.991914 0.0746158 0.38684 -0.527662 -0.756259 0.675196 0.212798 0.706277 -0.0604019 0.636011 0.769313 -0.621177 -0.165207 0.766058 0.668548 0.647723 -0.365376 0.592269 -0.400259 0.699292 -0.253859 0.967168 -0.0119022 -0.596564 -0.285767 -0.749966 -0.734454 -0.501618 0.457117 0.840208 0.480288 0.25174 -0.554853 0.527941 0.642974 -0.766708 -0.307253 -0.563696 -0.469958 -0.874077 -0.122999 0.650976 -0.266057 -0.710946 0.84166 -0.374622 0.388931 -0.671789 -0.0922974 0.73497 -0.237885 -0.850667 0.468802 -0.127596 0.949277 0.28739 0.304302 -0.86002 -0.409593 -0.24949 -0.145008 -0.957459 0.471261 -0.254716 0.844413 0.929546 0.152046 -0.335897 -0.257156 0.948292 -0.186048 0.708749 0.6002 0.370722 0.928129 0.267116 0.25928 0.827367 -0.527412 0.193133 0.771682 0.604153 0.198763 0.884526 -0.0078837 -0.466424 -0.102425 -0.408 -0.907219 -0.490482 0.863037 0.120808 0.357472 -0.102035 0.928333 0.587086 -0.446814 -0.675046 -0.366317 -0.0991625 0.925191 -0.495361 -0.866464 0.0621034 -0.124698 0.159732 0.979253 0.0477407 -0.389972 -0.919588 -0.145036 0.583793 -0.798843 0.821285 0.482867 0.30386 -0.427524 -0.548967 0.718233 0.463471 -0.123778 0.877424 0.890995 0.42519 0.15919 -0.118672 -0.848877 0.515097 -0.891788 -0.244223 -0.38088 0.757073 0.612665 0.226895 0.726333 0.576082 0.374926 0.0998748 -0.9381 -0.331653 -0.727033 -0.214892 0.652108 0.0725224 -0.994222 -0.0791377 -0.616524 0.786344 -0.039515 -0.512343 -0.0491615 -0.857373 0.0381824 0.546616 -0.836512 -0.567968 0.819182 -0.0797057 0.904382 -0.37912 0.19586 -0.295276 0.507374 0.809558 -0.390387 0.783066 -0.484154 0.090179 -0.123222 -0.988273 -0.0364334 -0.929458 0.367125 0.555301 0.716134 -0.422839 -0.880905 -0.36915 -0.296201 -0.433269 -0.308257 -0.84691 0.158146 -0.497529 -0.85291 -0.504579 -0.598251 0.622492 -0.358853 0.830086 0.426828 0.619403 0.640772 -0.453599 -0.306651 -0.890712 -0.335556 -0.379934 0.620728 0.685818 -0.998236 0.0155178 0.0573123 -0.790538 -0.50177 0.351108 -0.0260292 -0.471956 -0.881238 -0.172232 0.103441 0.97961 -0.570529 -0.684077 0.454462 0.23589 -0.71857 0.654227 -0.304368 -0.761982 -0.571614 -0.514996 0.666019 0.539628 -0.00571555 -0.90364 0.428256 -0.851646 0.496668 0.167392 -0.104852 0.378964 0.919452 -0.242742 0.79416 -0.557124 -0.512871 0.846447 0.143149 -0.882335 0.312645 0.351766 0.496156 0.613408 -0.614459 -0.154162 -0.702166 0.695124 0.447282 0.894389 -0.00252733 -0.844823 0.311827 -0.434785 -0.787741 -0.522459 0.326346 -0.301104 -0.890466 -0.341185 -0.188807 0.00578009 -0.981997 -0.330561 0.890212 -0.313452 0.921732 0.323579 0.21379 -0.249632 0.962554 -0.10571 0.227371 0.856191 -0.463938 -0.395599 -0.456896 -0.79671 -0.812627 0.578115 -0.0736274 0.764241 0.539942 -0.352701 -0.905569 -0.131525 -0.403294 -0.673596 0.0815227 -0.73459 0.114124 -0.937106 0.329862 0.243289 0.547938 -0.800359 -0.874435 -0.0831436 -0.477966 -0.491992 -0.85042 0.186359 -0.554799 0.793515 -0.250064 -0.821101 -0.172975 0.543942 0.397282 0.0985435 -0.91239 0.128749 0.0551446 0.990143 -0.887327 0.416094 0.198787 -0.689696 -0.703327 0.172193 0.551165 0.818 0.1646 -0.97069 0.0665896 0.230927 -0.721398 0.0131355 0.692396 -0.521727 -0.457183 -0.720268 0.347432 -0.617085 0.706044 0.834491 -0.3775 -0.401395 -0.562339 0.542005 -0.624504 0.76766 -0.633766 0.0950745 -0.317423 -0.668438 -0.672632 0.565677 0.647505 -0.510634 0.426632 -0.881409 -0.202737 -0.711119 0.487523 -0.506588 -0.908801 -0.379002 0.174463 0.52412 -0.84487 0.107204 0.150352 -0.0865971 0.984833 -0.744101 -0.64482 0.174701 0.143906 0.959309 -0.242933 0.703397 -0.645546 0.297494 -0.965146 -0.188999 0.181034 0.976277 -0.210992 0.0486337 -0.180099 0.546215 -0.818055 0.590119 -0.493106 -0.639223 -0.862894 0.341182 0.37284 0.728674 0.102688 0.677119 -0.278786 5.32302e-05 -0.960353 0.284575 -0.530663 -0.798382 0.959275 -0.11718 0.257022 -0.21869 -0.733452 0.643601 0.258574 -0.697567 0.668237 -0.603085 0.621876 0.499558 -0.798691 -0.324684 0.506629 0.521215 0.691095 0.500723 -0.259395 -0.351242 0.899635 0.374524 0.885277 -0.27571 -0.203083 -0.942263 -0.266268 0.555603 -0.0412299 -0.830425 0.886784 -0.0688961 0.45702 0.505524 0.18683 -0.842342 -0.395324 0.474844 0.786284 -0.302603 0.697378 -0.649689 -0.80748 -0.56269 -0.177074 -0.36114 0.202909 0.910168 0.577131 -0.510035 -0.637796 0.274459 0.961482 0.01499 -0.960834 0.264004 0.0842562 0.771124 0.57168 0.280267 0.0893227 -0.844867 -0.527467 -0.730763 -0.204543 0.651266 0.184639 0.628499 -0.755578 0.244813 -0.944619 -0.218543 -0.332909 -0.44902 -0.829188 0.754523 0.303861 0.581691 0.398211 -0.878529 -0.263847 0.807029 0.0601153 0.587444 -0.173924 0.977066 -0.122854 -0.756226 0.274423 -0.593982 0.160444 -0.474154 -0.865699 0.800624 0.401637 0.444622 -0.925568 -0.337595 0.17133 0.144047 0.569239 -0.809455 -0.103847 -0.730275 -0.675214 0.0443234 0.515254 0.855891 0.999336 0.0350498 -0.00990958 -0.0110351 0.921941 -0.387173 0.526955 -0.450779 0.720498 0.42989 0.810669 0.397505 -0.951711 0.0588617 0.301301 0.984514 0.153165 -0.085277 0.507529 -0.510892 -0.693832 0.84926 -0.19335 -0.491297 0.0670163 -0.992911 0.0981681 -0.00197747 -0.109667 -0.993966 0.392286 -0.52236 -0.757133 0.782688 0.186529 0.593807 0.387351 -0.780851 -0.490133 -0.180084 0.0652588 0.981484 0.861736 0.488919 0.135532 -0.0170342 -0.844155 -0.535829 0.11547 0.943995 0.309095 -0.800818 0.583678 0.134205 -0.942379 0.0175984 -0.334083 -0.208715 0.012242 0.9779 0.14291 -0.864187 0.482449 -0.634081 -0.415611 0.652081 0.109933 0.20125 0.973351 -0.282791 0.959156 -0.00694186 -0.527265 -0.781589 0.333332 -0.124119 0.751619 0.647814 0.586384 0.327803 0.740742 -0.974867 -0.184969 0.124182 -0.32806 0.890689 -0.314723 0.5805 0.0732421 -0.810959 0.817672 -0.187244 0.544382 -0.427185 -0.803591 0.414432 0.317779 0.334093 -0.887355 0.889471 0.32493 -0.321345 0.555764 -0.650534 0.517621 -0.603708 0.750855 0.267869 0.518673 -0.738422 -0.430942 -0.387456 0.733682 -0.558201 0.639015 -0.716079 0.280876 0.313144 -0.163939 -0.935449 -0.836975 -0.516957 0.179524 0.833309 -0.464609 0.299558 0.257009 -0.482527 -0.837325 0.0159194 -0.847692 0.530249 -0.0458264 0.396733 -0.916789 0.563266 0.561596 0.606087 0.0713996 -0.067294 0.995175 -0.853133 -0.513853 -0.0901105 -0.503317 0.347428 -0.79118 -0.980765 0.0350883 0.192013 -0.27409 -0.101357 -0.956348 0.965855 0.051745 0.253862 0.0436021 -0.0998642 0.994045 -0.537046 -0.486978 0.688791 0.998453 0.00398546 0.055468 0.764072 0.0216673 -0.644767 -0.288327 -0.781605 0.553138 0.189893 -0.132207 -0.972863 -0.952526 -0.00490921 -0.304418 0.149128 -0.395126 0.906442 0.81232 -0.495055 0.308312 -0.0802753 -0.662646 -0.744618 0.009065 0.849619 0.527319 0.462755 0.0930151 0.881593 0.585541 0.507094 0.632454 -0.994317 0.095384 0.0472829 -0.128524 -0.287964 0.948977 0.795806 0.592182 0.126545 0.186703 0.912927 -0.362912 -0.916782 0.201183 0.345016 0.367392 -0.627871 0.68615 0.650398 0.331244 0.683564 0.588935 0.793281 -0.15447 0.485692 -0.764953 -0.423025 0.493215 -0.443272 0.748498 -0.861818 -0.334526 -0.381263 -0.309746 -0.782762 0.539761 0.850127 -0.424222 0.311962 0.830506 0.557009 -0.000848247 -0.206322 -0.0343357 0.977881 -0.639462 0.745577 0.187626 -0.849145 0.0579719 -0.524968 -0.770867 -0.190232 0.607928 -0.462786 -0.718003 -0.519904 -0.490018 -0.694863 -0.526354 0.50317 -0.752433 -0.425046 -0.764669 0.251077 0.593499 0.993188 -0.0575711 0.101307 0.00438835 0.864441 0.502714 -0.815056 -0.57137 -0.0960227 -0.851047 0.509963 0.125124 -0.855436 -0.354478 -0.377591 -0.272924 -0.956587 0.102246 0.791365 -0.288089 -0.539209 0.674621 -0.735982 -0.0567148 -0.0915799 -0.280616 -0.955441 0.219854 -0.943329 0.248585 0.0703754 -0.0528522 -0.996119 -0.961744 -0.273734 -0.0108269 0.592499 -0.735721 0.328114 -0.115907 0.097182 0.988494 0.782736 0.614465 0.0987781 -0.361881 0.74068 -0.56607 -0.536506 -0.479767 -0.694251 0.265336 0.937618 -0.224653 0.334407 0.907419 0.254485 0.372643 -0.759303 0.533476 -0.499896 0.851664 0.157392 -0.427614 0.339476 -0.837796 0.442878 -0.881337 -0.164633 -0.3981 -0.806246 0.437589 0.521668 0.498647 -0.692252 -0.325503 0.103942 0.939811 -0.55776 -0.0883519 0.825287 0.637954 -0.577073 0.509904 0.482927 0.040615 0.874718 -0.721563 -0.426812 -0.54514 0.742369 -0.184465 -0.644098 0.363471 0.151751 0.919163 -0.195396 -0.430251 -0.881308 0.389358 -0.642052 -0.660431 -0.387133 -0.829535 0.402492 0.528642 -0.718676 0.451711 -0.665144 0.71912 -0.201121 -0.520915 -0.444285 0.728875 0.375659 -0.917877 0.127991 0.66098 0.674216 0.329451 -0.136414 0.174936 0.975084 0.680843 -0.433837 0.590117 0.79186 -0.36701 0.488121 -0.428631 -0.0325918 0.902891 0.920023 0.131929 -0.368987 0.128163 0.498939 -0.857108 0.173731 0.966588 0.18848 -0.223914 -0.0849566 0.970899 -0.813765 0.485944 -0.318819 -0.145671 0.987615 0.0582784 -0.79306 -0.561619 -0.235881 -0.750858 0.190289 0.632458 -0.154619 -0.950426 0.269783 0.173114 -0.653377 0.736973 0.0845313 0.321095 0.943267 -0.820895 -0.0984372 -0.562531 -0.0885828 0.974472 0.206294 0.324824 -0.365292 0.872382 0.214322 0.617473 -0.756831 0.660335 0.74817 -0.0648091 -0.517877 0.846903 -0.12066 -0.223268 0.566839 0.792997 0.294609 -0.280062 0.913658 0.318171 0.853773 0.412115 -0.0975972 -0.949893 -0.296947 -0.848472 0.457167 0.266635 0.773334 0.629801 -0.0728349 0.985395 -0.166201 0.0370776 -0.733964 -0.354318 -0.579444 -0.874541 0.15418 0.45979 0.460957 -0.32675 -0.825078 -0.897608 -0.261966 0.354505 0.920889 0.136972 -0.364967 0.749774 -0.504033 0.428708 -0.388096 -0.673827 0.62876 0.810622 -0.059642 -0.582525 0.891368 0.0757869 0.446899 -0.31084 -0.412154 -0.856451 -0.709546 0.219225 -0.66969 0.477191 0.853038 0.211224 0.619267 -0.590415 0.517609 0.223511 -0.9747 -0.00142521 0.964158 0.102461 -0.244747 -0.0815463 0.883578 0.46113 0.00657638 -0.280402 -0.95986 -0.389369 0.502311 -0.772059 -0.774355 -0.0568537 -0.630192 0.71165 0.512776 -0.480224 -0.0238378 -0.779514 -0.625931 -0.164967 0.605624 -0.778463 0.260274 -0.76788 0.585336 -0.945903 -0.263771 -0.188926 0.805621 0.208463 0.554543 0.673035 0.605897 -0.424162 -0.455748 0.229386 -0.860044 0.217905 0.930275 -0.295137 0.905104 0.207773 -0.370969 0.687198 -0.722502 -0.0758312 0.850626 0.122125 0.511391 -0.479065 -0.708434 0.518284 -0.720819 0.640377 -0.265211 0.277581 0.595678 -0.753735 0.945883 -0.075809 -0.315529 -0.685458 -0.692868 -0.223788 -0.358419 -0.774809 -0.520775 -0.072658 0.72508 -0.684821 -0.469436 -0.860796 0.196623 -0.995771 -0.0814285 0.042546 -0.731601 0.681412 -0.0209207 -0.477508 -0.218662 -0.850983 -0.0902958 -0.903302 0.419395 -0.431989 -0.205772 0.878091 0.273367 -0.956883 -0.0982112 0.621229 0.144633 -0.770166 -0.0667988 -0.579844 -0.811985 -0.688029 -0.724478 -0.04182 -0.625782 0.779732 0.0203768 -0.673448 -0.422685 0.60647 -0.0150362 0.975513 0.219426 0.482644 0.357337 0.799603 0.268693 -0.617635 0.739142 -0.21395 -0.974972 -0.0604607 0.222176 -0.97281 -0.0654119 0.930425 0.35347 -0.0967904 0.980731 -0.149907 -0.125274 0.258963 0.964529 -0.0512033 0.336012 0.124267 0.933624 0.581585 -0.0155569 -0.813337 0.800456 0.0303772 0.598621 -0.117796 0.0840629 -0.989473 -0.387639 0.306246 0.869453 0.57097 0.819227 0.0534944 -0.363414 -0.470252 0.804235 -0.873524 0.48575 0.0316698 0.974007 -0.179819 -0.137749 0.0265993 0.497363 0.867135 0.230003 0.973123 0.0114013 -0.512218 -0.784209 -0.350213 0.203404 0.475761 -0.855733 -0.245416 -0.163043 0.955609 -0.0290671 -0.124617 -0.991779 -0.91601 -0.232819 -0.326682 0.15301 0.243543 -0.957745 -0.347694 0.93592 -0.0562361 -0.149701 0.528226 0.835803 0.915409 -0.391906 -0.0918513 0.154641 -0.405982 0.900703 -0.136323 0.630962 -0.763743 -0.802381 -0.456392 -0.384566 0.949499 0.155833 -0.272336 -0.058705 0.0167316 0.998135 -0.274626 0.85581 0.438371 0.0637627 -0.144524 0.987445 0.0930421 -0.709622 0.698412 0.702293 -0.031371 -0.711196 -0.104209 0.621 -0.776852 -0.498701 -0.634973 -0.590006 0.811231 0.236877 0.534597 0.561846 -0.177033 -0.808077 -0.552413 -0.2474 0.796011 -0.0499211 -0.103602 0.993365 0.452194 -0.170323 -0.875506 0.362155 -0.926584 -0.101416 0.921227 0.17971 -0.345028 0.491976 0.635972 0.594559 0.812419 -0.203689 -0.546339 0.866498 0.455879 0.203359 0.0540796 0.659568 0.749697 0.740239 -0.54363 -0.395617 -0.970163 -0.23653 0.0532603 0.0293808 -0.998466 0.0469201 0.0135487 0.214477 -0.976635 -0.922727 0.327653 -0.203022 -0.679914 -0.617648 -0.395256 0.324608 0.322285 0.889248 -0.0258662 -0.99253 0.119225 0.83809 0.545337 0.0145825 -0.452207 0.847898 -0.276728 0.840918 0.527029 0.122873 0.398669 -0.751967 -0.524985 0.639725 0.745743 -0.186062 0.753419 -0.0336455 0.656679 0.796818 0.10876 0.59435 -0.299341 -0.874608 0.381387 -0.186637 -0.358413 -0.914717 -0.659508 0.441722 0.608219 0.336031 -0.223053 0.915058 0.471079 -0.552203 0.687864 -0.72163 0.680066 0.12946 0.378334 0.489262 0.785803 -0.376005 -0.602681 0.703843 -0.838875 0.188585 -0.510612 -0.726238 0.322251 0.607234 0.739435 0.370641 -0.562015 -0.873409 0.483366 0.0592811 -0.683856 0.427323 -0.591385 0.693795 0.717999 -0.0559021 -0.796304 -0.344928 -0.496914 0.326083 0.595482 -0.734215 -0.167183 0.790437 -0.589287 -0.0724084 -0.805318 -0.588404 -0.467368 -0.377633 0.79935 -0.0683641 -0.961008 -0.267937 0.452013 -0.320332 -0.83251 0.432153 -0.396132 0.810137 0.520377 0.640676 -0.564573 0.763478 0.326533 -0.557205 0.445766 0.78535 0.429556 0.851522 -0.502501 0.14968 -0.214818 -0.0533378 -0.975197 -0.476493 -0.725368 -0.496786 0.996683 -0.0802043 -0.0137924 -0.70288 0.284375 0.65199 -0.956796 0.050044 -0.286421 -0.253916 -0.234331 -0.938411 -0.00850788 -0.999634 -0.0256853 -0.602965 -0.693138 0.394959 0.584413 0.250649 0.771775 0.994213 -0.106533 0.0138094 -0.406741 0.14628 0.901756 0.00616499 0.293602 -0.955908 -0.222624 0.921359 -0.318648 -0.380792 0.134268 -0.91486 -0.158167 -0.787092 -0.596212 -0.853884 -0.476768 0.208743 -0.972366 -0.113204 -0.20418 -0.980729 -0.194418 -0.0192994 -0.125738 0.139098 -0.982264 -0.229803 -0.348335 0.908765 0.736155 -0.676446 0.0222698 0.116247 0.96778 -0.223359 0.999738 0.0113862 -0.0198574 -0.376338 0.81532 0.440026 -0.19437 0.709461 0.67741 0.921209 0.387963 0.0293024 -0.983245 0.177054 -0.0433737 -0.263411 -0.386266 0.883976 0.0424774 0.591803 -0.804963 -0.877065 -0.316007 -0.361796 0.704342 0.503385 -0.500505 -0.950458 0.0985135 0.294829 -0.7003 0.651567 -0.291616 -0.413344 0.136543 0.900279 0.379174 -0.52797 -0.759917 0.588968 -0.790078 0.169982 0.951723 -0.3029 -0.0497488 -0.137117 -0.877957 -0.458683 0.187416 0.0330551 -0.981724 0.387391 0.0161343 -0.921774 0.125436 0.0247779 0.991792 -0.963705 0.125381 0.235693 0.181128 0.789676 0.586178 0.134866 0.86901 -0.47606 0.920719 0.331192 0.206372 -0.508063 0.66907 0.542417 0.310414 -0.0802294 -0.94721 -0.104535 0.461456 -0.880983 -0.42818 0.492583 0.757644 -0.806051 0.545852 -0.228754 0.953519 0.240016 -0.182189 -0.187975 -0.771282 -0.608103 0.805483 -0.0150709 -0.592428 0.873559 -0.33585 0.352277 -0.751738 0.580826 -0.312299 -0.157011 -0.968166 -0.19494 0.481936 -0.641203 0.597157 0.0680768 -0.320779 0.944704 0.0293044 -0.999001 0.0337343 0.494938 -0.429997 0.755076 -0.927463 -0.345881 0.142048 0.576606 0.110999 -0.809447 -0.163674 0.84948 0.501593 0.170651 -0.476473 -0.862469 0.274175 -0.883735 0.379264 -0.928318 0.140084 -0.344385 0.145937 0.845638 -0.513418 0.902382 0.367121 -0.225672 -0.671328 -0.695712 -0.255545 -0.920224 -0.377082 -0.104867 -0.0635863 -0.545362 -0.835786 -0.988204 -0.149113 -0.0348893 -0.866565 -0.419899 0.269721 -0.782832 -0.307374 0.541013 -0.531214 0.84381 -0.0761349 0.342543 0.422032 -0.839377 0.517286 -0.252541 -0.817703 0.855876 -0.295503 0.424446 0.295882 -0.915346 -0.27312 -0.674533 -0.115617 0.729135 -0.640629 0.75172 0.156561 0.499927 -0.399172 0.768593 -0.133393 0.806407 0.576119 -0.994929 0.100466 -0.00468429 0.996347 -0.0717709 0.0462802 -0.130063 0.182121 0.974636 -0.949694 0.299952 0.0900521 -0.187705 0.11732 0.975194 0.526371 0.330768 0.783279 -0.509809 -0.842979 0.171699 0.561943 -0.736394 -0.376754 -0.109963 0.390288 0.914103 -0.657087 -0.7142 -0.241153 0.035507 -0.996778 -0.0719264 -0.61691 0.272234 -0.738451 0.949902 0.236545 -0.204284 0.823903 0.00461402 0.566713 -0.24013 0.801817 0.547199 -0.195501 -0.850203 -0.488809 0.464251 -0.883237 -0.0660569 -0.130456 -0.512382 0.848791 0.380638 0.914843 -0.134822 0.0029596 -0.372181 -0.928155 0.480045 0.534361 0.695711 -0.757478 0.638803 -0.134749 0.788081 0.585316 -0.190614 0.668159 -0.633739 0.389793 -0.828673 -0.50324 0.245053 -0.530588 0.685632 -0.498382 -0.411535 0.249946 0.876451 0.514495 0.849458 0.11711 0.794884 -0.51584 -0.319481 0.614644 0.255464 0.746292 -0.534638 -0.273423 -0.799626 0.479337 -0.690556 0.541635 -0.2734 0.634265 0.72316 -0.846507 0.129487 0.516391 0.272724 0.668313 0.692083 0.219404 -0.45391 0.863613 -0.900958 -0.407603 0.148774 0.988525 0.0312063 0.147798 0.824794 -0.336176 0.454644 -0.0477407 -0.838094 0.543433 -0.564418 0.617014 -0.548384 0.491823 -0.649521 0.579856 -0.81932 -0.525673 -0.228875 0.819483 0.534204 -0.207542 -0.637673 0.32092 0.700274 0.350303 -0.908755 0.226831 -0.0751012 0.0433248 -0.996234 -0.753974 0.630604 -0.184016 0.375224 -0.545894 0.749137 -0.256245 0.819127 0.513196 0.345492 -0.571566 -0.744276 0.634403 -0.440663 0.635098 -0.844904 -0.415845 0.336468 0.505731 -0.666228 0.548065 0.651757 -0.563127 -0.508036 0.705806 0.652447 -0.275956 0.649569 -0.706576 0.280734 0.590418 0.437422 -0.678284 -0.913079 -0.279302 0.297114 -0.602365 0.632199 -0.487321 0.490529 -0.0319771 0.870838 0.126199 -0.873051 0.471015 -0.36433 -0.841074 -0.399823 -0.627438 -0.406947 -0.663864 0.175565 0.977655 -0.115619 -0.470524 0.200778 -0.859241 0.389745 -0.780827 0.488271 0.944419 -0.265246 0.19421 0.683433 -0.174631 -0.708818 -0.654362 0.68957 0.310328 0.406662 -0.0652847 0.911243 0.955194 -0.277669 0.102488 -0.30495 0.842049 -0.444926 -0.910451 -0.348554 0.222686 0.891965 0.22992 0.389274 -0.606679 0.16008 -0.778662 0.303961 -0.210044 -0.929241 0.288116 -0.538692 0.791707 -0.196896 -0.449691 0.871212 -0.872229 -0.487959 -0.0333581 0.627017 0.688695 0.364072 0.789207 0.402291 -0.46402 -0.0627083 0.521927 0.850682 -0.571427 0.809506 0.134796 0.056533 -0.943453 -0.32665 -0.604971 0.075724 -0.792639 -0.907344 -0.205861 -0.366535 0.434696 0.675302 0.595824 -0.766517 0.630552 -0.121881 -0.804646 0.0925297 0.586501 0.464486 0.423929 -0.77752 -0.514383 0.768926 -0.379689 -0.920916 -0.315544 0.22879 0.612512 0.57422 0.543232 0.873285 0.40673 0.268225 -0.492022 0.867137 -0.0773788 -0.0232308 0.986769 0.16046 -0.559589 0.588426 -0.583622 0.412963 0.902645 0.121217 -0.530273 0.806555 0.261303 0.91134 0.00311882 -0.411644 -0.798265 -0.36057 -0.482455 -0.198242 0.741054 0.641514 0.497406 0.498213 0.710191 -0.395222 0.821465 -0.411089 -0.263274 -0.233976 -0.935918 -0.32945 -0.928686 -0.170311 0.248856 0.701692 -0.667607 -0.528951 0.444979 -0.722638 -0.867951 -0.485997 0.102315 0.68767 0.0182043 -0.725795 -0.777727 0.595225 0.202112 -0.492396 -0.0970471 0.864944 0.28533 -0.692271 0.662833 0.504108 -0.539254 0.674597 0.295346 0.913222 0.280706 -0.659315 0.236113 -0.713831 