# vtk DataFile Version 4.0
Generated by libgran
ASCII
DATASET POLYDATA
POINTS 1686 FLOAT
-32.5858 1.84375 5.64261 -31.1066 1.20808 6.70499 -33.4033 1.90613 4.05755 -32.4212 2.93371 5.14432 -32.7539 -1.64516 6.68629 -34.0579 2.43574 3.06885 -30.4288 0.0593062 11.3714 -29.7782 -1.5262 11.7956 -31.1776 0.584329 10.4062 -31.0046 -0.443058 8.95139 -30.8786 1.28594 9.04929 -30.3749 1.58408 7.87618 -28.8809 -3.02146 14.2755 -28.1856 -2.41717 13.3165 -28.5738 -1.33871 13.3479 -28.3916 0.363636 12.9699 -27.8667 0.770511 13.7175 -28.0046 1.38126 12.3373 -29.1432 -5.13224 11.9832 -29.5173 -7.34637 13.1662 -29.5642 -6.12617 12.64 -29.9416 -6.57 14.289 -28.8703 -8.15087 12.3206 -29.8673 -6.12169 15.4123 -31.3287 -6.10725 15.3893 -32.2657 -6.44799 16.0684 -32.1692 -5.29673 16.7123 -32.1589 -5.92607 19.7563 -33.3694 -6.86201 19.5395 -32.4288 -5.78212 18.3646 -31.4019 -6.23398 20.8052 -30.1633 -7.53259 21.048 -34.224 -6.94934 20.9877 -31.2842 -4.96857 17.6557 -27.5447 -7.81107 19.5578 -28.3048 -9.01892 19.6143 -26.2763 -8.1312 19.3198 -25.1932 -8.15424 19.0831 -24.6682 -6.72104 20.0558 -25.1658 -5.98231 21.5559 -24.5199 -5.2576 19.9243 -27.4302 -9.93139 20.7003 -19.5132 -13.1531 23.421 -20.3815 -12.7733 22.4885 -21.7984 -13.4356 22.6651 -18.8391 -12.0302 24.8894 -20.141 -11.6058 25.3652 -23.37 -14.0005 23.0256 -24.8819 -11.9246 19.9351 -23.9911 -11.831 18.8536 -24.608 -12.9673 20.7134 -25.9755 -12.2676 21.0745 -23.9885 -13.848 21.9143 -26.5689 -10.9237 21.5849 -23.6715 -13.4539 18.0169 -24.2598 -14.8066 17.1766 -23.7853 -17.0511 18.0037 -23.906 -17.2094 16.6888 -24.7092 -16.0413 16.9237 -22.1079 -16.8411 18.3653 -22.2942 -17.4734 15.7066 -20.5047 -17.1747 18.3285 -20.683 -18.1007 18.9565 -22.5537 -16.811 11.5537 -23.6919 -16.8635 11.728 -23.2247 -15.2636 11.9405 -21.3071 -17.2711 11.6004 -21.9755 -18.2888 10.478 -20.4681 -16.7332 13.1762 -20.8483 -16.8834 14.7518 -37.6183 17.0157 4.48547 -37.9508 16.4364 2.61694 -37.6309 15.5096 2.42033 -36.693 17.8295 5.49844 -35.9957 17.8828 6.34404 -35.2 18.4766 6.22453 -35.2675 17.8868 7.0293 -41.087 15.4948 2.65159 -42.1111 16.2231 2.21942 -40.2971 16.9495 2.1558 -40.191 15.1038 3.1808 -41.1643 13.7 2.66443 -41.8274 12.5866 3.04668 -42.4343 11.3865 3.68692 -46.7719 11.7047 4.21885 -47.1186 10.7283 3.66724 -47.7942 12.942 3.66882 -45.9942 13.2718 5.18365 -43.3644 10.8569 3.70806 -42.5734 9.96065 2.62512 -43.1717 10.3431 1.50506 -42.9755 9.47652 0.786009 -42.5776 8.5626 2.01466 -43.304 11.9363 0.769104 -44.6269 10.8168 1.27227 -43.6081 12.4657 -0.422838 -42.74 7.17934 1.42535 -42.7286 6.96617 3.03177 -44.6076 10.1711 -5.57198 -44.2915 10.3077 -6.85625 -44.6854 8.58049 -6.57652 -46.3462 11.6858 -6.49085 -47.0842 11.087 -6.98117 -47.1009 11.5005 -5.1287 -48.2819 10.6022 -7.49765 -47.8389 10.9017 -5.61902 -45.0486 6.82841 -6.3277 -46.3487 11.5239 -3.09259 -47.2664 11.5658 -4.06857 -46.1959 11.2793 -1.89977 -46.2918 10.8613 -0.860311 -46.792 10.2729 -0.0484414 -45.7984 10.1982 0.331659 -48.0617 11.4266 0.221217 -45.9743 11.2796 1.67778 -44.9055 5.94076 -10.6759 -44.759 5.77418 -12.3715 -44.0761 4.94693 -10.7229 -45.0167 7.24926 -10.4673 -45.7027 8.35511 -10.7999 -46.8802 8.3668 -9.6445 -43.9081 3.55115 -9.77815 -47.9838 7.85746 -9.22838 -43.3637 3.60139 -5.94498 -43.225 4.94096 -5.80693 -44.5727 5.17691 -5.91032 -42.5755 6.47432 -5.84899 -25.55 14.3366 19.7409 -26.1863 15.0244 20.6842 -24.9061 15.7576 20.0603 -26.6921 13.2057 18.7943 -28.3221 12.9171 20.3706 -28.6844 10.4888 18.0104 -29.2597 12.2216 17.6029 -29.1703 9.38395 17.5814 -28.4291 8.62039 17.7908 -28.5882 12.4973 16.915 -30.6845 8.62865 17.8671 -29.9822 9.6115 16.3772 -30.8968 7.9001 19.374 -25.9361 5.4793 12.2176 -25.6888 4.39763 11.9693 -26.3487 6.53347 12.9152 -27.8452 5.81775 12.5502 -27.1567 3.5285 12.5215 -26.7659 3.31312 11.087 -27.6181 2.79391 13.8283 -26.3139 2.53868 9.96963 -25.8628 2.70386 9.00892 -29.0316 9.59359 15.1907 -30.2736 9.55932 14.7171 -27.8964 9.99606 14.4837 -30.2824 8.27558 13.4793 -31.4509 9.63855 13.6736 -30.7767 7.05819 13.1702 -29.3623 6.65112 12.8408 -33.8535 7.04699 4.74185 -35.0267 6.57342 4.33283 -33.2242 7.91157 5.24702 -32.7095 6.27893 5.74716 -36.577 6.02062 5.34988 -34.4409 4.48794 6.09808 -37.7663 6.6688 5.24813 -37.9287 6.86 3.75426 -41.0792 5.74403 4.58637 -39.5737 5.19573 4.24676 -42.3059 6.25029 4.5228 -43.0447 5.8557 2.88781 -38.6814 6.67371 3.06175 -38.7761 4.34359 5.26656 -32.0262 6.97504 10.9267 -31.565 9.47245 10.4493 -32.7254 9.49651 11.7602 -32.8303 9.63372 12.8539 -33.5533 8.51581 13.1411 -31.8805 11.1403 13.2613 -33.8442 7.08814 13.5477 -34.371 4.03283 8.74351 -33.7098 4.08347 9.89597 -33.7792 4.07104 6.84781 -32.9201 4.50485 10.9688 -26.0016 24.0018 28.8942 -26.8506 22.9823 29.4473 -27.4575 24.2368 29.6058 -24.7197 23.7813 28.6182 -25.2257 24.9968 27.6438 -25.4484 25.6052 26.3936 -23.0662 24.7643 31.3414 -22.795 24.9936 33.66 -23.7046 25.5268 34.8264 -22.4851 24.8027 32.3811 -22.0084 24.5387 31.4135 -23.9625 26.5312 31.9203 -23.6947 25.6252 36.0596 -25.3578 28.5579 36.4964 -24.842 29.4569 37.3322 -25.884 30.4115 36.7749 -25.806 28.0039 35.6472 -24.9345 27.2546 35.2556 -23.1276 29.864 38.2029 -25.7719 26.4811 34.6022 -20.5554 26.6078 38.2362 -20.6218 25.3237 38.5753 -20.4305 27.695 38.1093 -19.3282 28.3647 38.7758 -20.3782 29.1854 38.359 -17.743 28.0596 39.4093 -17.8835 29.2601 38.9151 -21.358 30.1417 38.2118 -19.4617 30.1811 37.6551 -29.0937 25.2221 38.086 -29.1651 26.4525 35.7748 -31.6202 24.5716 36.2706 -31.414 23.4793 35.3836 -30.9521 22.9224 33.6244 -27.845 25.1774 38.5534 -32.2683 20.4179 31.7169 -32.9474 21.1013 33.2253 -31.0324 20.5285 31.2357 -30.1628 20.4484 30.7485 -33.2055 22.0932 34.5051 -33.9795 21.4656 34.4212 -35.8335 21.5001 34.3823 -36.6384 21.2008 33.1485 -36.0973 20.4258 32.6547 -37.7752 22.6712 32.4853 -38.1902 22.3201 34.1184 -38.6525 23.1487 33.23 -37.0012 20.338 34.5546 -38.1066 23.1396 35.8089 -38.3125 24.3767 34.0444 -41.9156 23.7669 37.4196 -41.3083 24.8846 37.0322 -40.4265 24.1245 36.412 -39.0475 24.0542 36.0484 -41.7198 25.3668 34.3719 -37.9381 24.2436 35.646 -34.5656 6.85995 22.4915 -34.4924 5.60832 22.9328 -35.9936 6.59985 23.2985 -33.2437 7.15632 21.551 -34.5069 8.24616 22.0211 -31.7602 6.3001 20.8131 -30.823 5.89218 19.7812 -31.2896 5.16419 19.0317 -29.7686 5.82103 18.7827 -31.7477 4.15283 18.3 -31.377 3.49264 19.5201 -27.76 4.79752 17.6643 -27.5934 5.88767 17.4064 -39.4608 6.91441 22.772 -39.7563 5.88689 23.5625 -41.1655 5.43052 22.8914 -39.8921 8.18149 23.443 -41.2151 7.83114 22.9042 -37.7787 5.31708 20.2628 -38.0729 6.61553 21.3639 -37.0033 4.86659 20.9395 -36.2353 4.43228 21.4103 -34.8002 5.28654 20.5948 -35.1831 3.84535 21.5767 -30.156 15.5565 23.3181 -31.1735 15.4019 24.1601 -29.832 15.3116 25.1722 -29.1137 15.3531 22.4744 -30.0265 14.7918 21.5883 -32.2482 16.0455 24.4505 -31.8772 17.2019 25.7238 -30.8749 18.1386 27.0911 -32.4566 9.68231 20.7979 -31.4351 9.61602 21.6114 -30.9673 10.7954 20.7773 -33.5865 10.3837 20.7992 -34.2838 9.1884 21.3563 -29.8646 11.1937 21.5774 -29.9381 12.1905 21.5486 -29.9312 19.6681 27.3535 -29.7664 18.0951 27.2555 -30.6449 19.8405 29.5367 -32.0964 19.4617 28.6018 -29.2038 16.6771 27.5914 -28.2756 15.8389 28.5454 -32.1517 19.714 26.2269 -32.8039 18.893 27.3596 -32.388 21.021 26.2901 -34.0622 21.3136 25.9953 -35.579 20.7451 26.1539 -35.8069 21.9703 24.3158 -5.66413 24.9536 42.6131 -4.71896 24.7584 42.875 -6.96999 24.7094 42.5093 -5.23183 24.099 42.3255 -7.6946 26.0234 43.3881 -8.63561 24.6712 42.7736 -8.53164 25.7625 42.9072 -8.46327 26.6613 43.3401 -4.72212 23.0119 42.7092 -3.48156 23.4531 42.2018 -4.61091 21.2846 42.8893 -9.48721 23.8246 41.6729 -6.41025 19.31 43.5237 -6.02485 20.1532 42.2969 -6.90535 17.9536 43.4671 -7.15859 16.8738 43.6278 -4.36073 20.5677 43.8952 -0.778139 24.4439 43.3821 -1.71011 24.6541 42.4572 -2.16927 23.5043 42.5169 0.650529 25.6488 43.2083 -1.28118 26.1644 41.8664 -2.47924 22.2833 42.4827 -1.11065 27.9701 41.9079 2.00286 29.7491 42.4651 2.44458 28.5338 43.4795 -0.753769 29.5118 41.3307 3.43759 27.8084 42.9329 -1.90651 29.2845 42.5691 -19.5113 34.9001 45.3223 -18.3887 34.2039 45.1705 -19.7726 34.9688 47.0031 -20.8838 34.629 45.4749 -17.578 32.9966 47.7608 -17.9917 33.6131 49.2268 -17.018 32.1553 46.3527 -14.8509 30.7081 44.4746 -15.5827 30.8302 45.578 -14.1189 29.2245 44.5083 -16.6274 30.8986 45.8308 -16.5732 29.9257 46.9665 -15.7767 29.2331 46.4421 -12.901 29.1752 45.2443 -13.7152 28.917 46.0009 -16.4325 29.3914 48.4602 -11.1189 25.666 46.5448 -12.3357 26.1486 46.7898 -10.9086 25.9553 45.611 -10.1725 25.6637 46.2218 -12.5297 27.2974 47.6679 -13.1052 26.4687 48.5942 -13.0082 28.7732 47.3083 -10.0439 26.9353 45.1197 -14.6413 28.8034 46.8312 -9.41904 28.5319 42.7218 -8.95989 27.2879 42.5489 -10.1721 28.403 44.0783 -10.2141 29.402 44.0632 -10.9789 28.7076 42.5812 -10.1676 28.9166 44.9363 -19.2218 38.5786 39.9837 -19.8625 38.3374 38.205 -18.7408 39.7926 40.237 -19.6544 40.9088 39.5173 -19.139 41.306 40.2766 -20.0833 41.5901 40.1105 -20.8383 42.163 39.311 -19.5279 37.644 37.4038 -21.01 38.4507 37.5212 -19.3771 42.7878 40.3018 -21.866 45.5824 41.9367 -22.9974 44.1624 42.211 -23.4472 44.9995 42.8858 -22.7629 42.7902 41.454 -23.7411 42.7586 42.9652 -21.655 42.7529 39.9936 -20.1321 43.3607 39.5022 -24.7967 46.8597 43.1377 -24.5377 47.0017 41.3505 -24.0369 47.6406 43.8999 -24.35 45.8303 43.8162 -24.6657 46.3737 40.2583 -24.2913 47.932 40.1259 -22.3491 46.9537 45.8562 -22.0669 47.9081 49.0748 -22.4654 48.5972 48.0097 -23.7328 48.8428 48.7413 -21.729 48.2055 46.6946 -21.3841 49.4483 45.4524 -24.907 48.5888 48.7765 -15.7648 29.4126 41.6463 -15.0761 28.9665 40.6001 -15.3095 30.2794 40.1714 -14.8512 27.4456 40.8969 -16.4788 30.4107 39.2215 -13.9345 27.1753 42.2516 -12.4817 28.0306 42.4071 -17.9616 30.2211 38.3096 -18.3096 31.1988 37.0216 -17.6213 30.4739 36.9948 -17.4411 31.3512 36.55 -18.598 32.8108 38.4939 -18.193 32.7481 39.6661 -21.06 31.5376 40.1458 -21.6098 32.1326 38.6945 -21.7505 36.7841 42.887 -23.0615 35.8765 43.5997 -20.9678 35.8354 42.3816 -21.2905 35.1286 41.3627 -23.5846 34.2797 44.5614 -23.770
[...]
POINT_DATA 1686
FIELD FieldData 1
normals 3 1686 double
-0.57066 0.440725 -0.692899 0.908562 -0.194942 0.369476 -0.246786 -0.378342 -0.892162 0.73527 0.649237 0.194602 -0.616811 -0.705113 -0.3498 -0.407811 0.907948 -0.0965414 -0.721153 0.692479 0.0202622 -0.0705848 -0.893026 0.444434 -0.0277061 -0.167456 -0.98549 0.200696 -0.859931 -0.469297 0.326779 0.86907 -0.371393 0.176862 -0.570937 -0.801717 -0.00446744 -0.94671 0.322056 0.690744 -0.342418 -0.636885 0.302631 0.736047 -0.605516 -0.120469 0.966294 0.227514 -0.645403 0.559419 -0.520101 0.507489 0.0513322 -0.860128 -0.699909 -0.670059 -0.247282 -0.232007 -0.896341 -0.377818 -0.278874 0.323863 -0.90407 -0.656293 -0.119975 0.744907 0.879064 0.0918393 -0.467773 0.730624 0.568289 0.378465 -0.730798 0.582729 0.355472 -0.206193 -0.923464 0.323572 -0.109669 0.227794 0.967514 0.419813 0.569231 0.706918 -0.790734 -0.366708 0.490169 0.149927 0.713185 -0.684754 0.337174 -0.877135 0.341977 0.901404 -0.42148 -0.0991233 -0.0637779 0.27938 0.95806 0.994658 0.100362 -0.0241556 0.854859 0.325363 0.404173 0.0947876 -0.882479 0.460701 0.413568 -0.645487 -0.642112 0.669497 0.622447 0.405382 -0.14444 0.810747 0.567298 -0.353178 -0.0720104 0.932781 0.292737 0.652696 -0.69878 0.779829 -0.0299944 0.625274 -0.16853 0.887125 -0.429659 -0.699792 -0.507299 -0.50293 -0.717089 -0.154971 0.679535 0.906924 0.410842 -0.0932619 -0.395012 0.835248 0.382525 -0.854519 -0.409963 -0.318946 -0.581644 -0.724514 0.369823 0.30915 -0.630882 -0.711628 0.855501 -0.318216 0.40848 -0.511936 0.381516 0.769654 -0.235994 -0.562453 0.792435 -0.0814706 0.96235 -0.259318 0.0104273 -0.992094 -0.125066 -0.598687 -0.360606 -0.715218 0.774598 -0.135683 0.617728 0.653831 -0.294048 -0.697166 -0.149297 0.874076 -0.462279 0.902746 0.345621 -0.256116 0.958048 0.0300938 -0.285025 0.70046 -0.679149 0.219345 0.8787 0.246848 -0.408597 0.515356 -0.58824 -0.623203 -0.622783 -0.640739 -0.448994 -0.155571 0.959106 -0.236461 0.731311 0.128177 0.669892 0.0628537 -0.889523 -0.452546 0.107652 0.409651 0.905868 -0.487824 -0.559868 0.669758 0.160615 0.170683 0.972147 -0.171831 -0.408619 -0.896384 -0.491709 0.518205 -0.699776 0.76471 0.64308 0.0408262 -0.0674397 -0.589743 0.80477 0.728291 0.00399957 0.685257 0.79573 0.593742 -0.119514 0.0385485 -0.897615 0.439092 -0.985553 -0.169226 0.00691326 0.828488 0.557129 -0.0566977 0.857449 0.506617 0.0901113 -0.115805 -0.897157 -0.426262 -0.547325 -0.216192 0.808515 -0.0595888 -0.983938 -0.16827 -0.578144 0.784806 0.223225 -0.924914 -0.191563 -0.328386 -0.444198 0.452509 -0.773255 -0.552203 0.821367 0.142928 0.87047 -0.45432 -0.189406 0.079478 0.44191 0.893532 -0.518797 0.82434 -0.226526 -0.322638 -0.0422241 -0.94558 0.0752699 -0.95614 0.283073 0.386442 0.768857 -0.509432 -0.936498 -0.350618 -0.0062713 -0.690557 -0.239397 -0.68251 -0.237698 -0.427126 -0.872389 -0.226309 -0.640294 0.734035 -0.195977 0.67445 0.711836 0.120101 0.811102 -0.572442 -0.273841 -0.916152 -0.292704 -0.178695 0.465144 0.867011 -0.916637 -0.133713 0.376694 -0.57602 -0.650414 0.495139 -0.281106 -0.351036 -0.89317 0.161922 -0.0515567 0.985456 -0.0893264 -0.835929 0.54152 0.5071 -0.757588 0.410988 -0.410589 -0.715681 -0.564994 -0.354322 0.513032 0.781827 0.258404 -0.931049 0.257635 -0.75856 0.342652 0.554235 0.234986 0.267953 0.934335 -0.511162 0.811005 -0.284577 -0.410826 0.81342 0.411788 -0.341783 0.521967 0.781495 -0.195275 0.355378 -0.914098 0.487677 -0.471871 0.734513 0.230631 0.786524 -0.572878 -0.916668 0.319328 0.240312 -0.260764 -0.307639 0.915074 -0.319668 -0.923906 0.210262 -0.84283 -0.201696 -0.498955 -0.643783 0.759959 -0.0894755 0.782485 0.579612 0.227525 -0.565193 0.815565 0.124138 -0.132972 0.953752 -0.269583 -0.337476 -0.571198 -0.748226 -0.973813 0.116658 0.19514 0.306424 0.849856 -0.428776 -0.804627 -0.559663 -0.198374 -0.774771 -0.26292 -0.574981 0.439075 -0.891067 -0.114946 -0.136182 0.841686 -0.522512 -0.925012 -0.213813 -0.314065 -0.183763 -0.977375 -0.104733 -0.807667 0.565979 0.165353 -0.589155 -0.54148 0.599746 0.113162 0.441364 -0.890164 0.376878 -0.187071 0.907175 -0.916349 0.339328 0.21251 -0.669055 -0.742348 -0.0358427 0.503754 0.714837 0.485017 -0.992772 -0.000883701 0.120015 -0.798854 -0.126781 0.588012 -0.408035 -0.342159 -0.846424 0.337476 -0.607803 0.718808 0.860066 -0.432276 -0.270969 -0.409029 0.597448 -0.689748 0.837415 -0.459274 -0.296316 -0.404572 -0.493547 -0.769892 0.297812 0.861744 -0.410738 0.395769 -0.790193 -0.467934 -0.772702 0.572777 -0.273603 -0.890101 -0.427191 0.158834 0.524318 -0.834259 -0.170594 0.463276 -0.0454524 0.885047 -0.709933 -0.519025 0.476034 0.165952 0.910032 -0.379871 0.680714 -0.72261 0.120267 -0.840336 -0.0337764 0.541012 0.937708 -0.282666 -0.201998 -0.348978 0.681957 -0.642766 0.186518 -0.490756 -0.851099 -0.57764 0.430675 0.693434 0.927884 -0.117628 0.35383 -0.649032 0.075585 -0.756997 -0.0897907 -0.47018 -0.877991 0.939231 -0.304458 -0.158587 -0.13031 -0.734512 0.665967 0.433871 -0.779516 0.451785 -0.448934 0.464447 0.763379 -0.711527 -0.440391 0.547526 0.606686 0.577602 0.546176 -0.116312 -0.540312 0.833387 0.343134 0.92898 -0.138766 -0.174582 -0.887355 -0.426758 0.315742 -0.0960295 -0.943973 0.976969 -0.0453893 0.208496 0.276039 0.13424 -0.951726 -0.187274 0.466776 0.86432 0.528768 0.116877 -0.840681 -0.320166 -0.902654 -0.287592 -0.927101 0.351884 -0.129079 0.75313 -0.337414 0.564754 0.247142 0.878109 -0.409689 -0.469833 -0.269701 -0.840547 0.681052 0.677713 0.277259 0.209939 -0.830171 -0.516471 -0.699656 -0.296951 0.649848 0.0999242 0.639297 -0.76244 0.376744 -0.903299 -0.20522 -0.262021 -0.502656 -0.823821 0.70951 0.395305 0.583378 0.353326 -0.870739 -0.342015 0.869125 0.0282976 0.493783 -0.172877 0.982893 -0.0635189 -0.801503 0.31675 -0.50721 0.0700432 -0.432581 -0.89887 0.845277 0.378792 0.37686 -0.907464 -0.340922 0.245521 0.0171527 0.452136 -0.891784 -0.0491887 -0.83193 -0.552696 0.107759 0.635096 0.76488 0.994545 0.0346046 -0.0983967 -0.055469 0.855283 -0.515183 0.590648 -0.339694 0.731944 0.45014 0.860737 0.237708 -0.924331 0.101056 0.367968 0.971953 0.140388 -0.188677 0.397442 -0.451361 0.798945 0.951699 0.136023 0.275258 0.216293 -0.970615 0.105469 -0.0100974 -0.121628 -0.992524 0.472002 -0.435304 -0.766632 0.851285 0.406676 -0.331555 0.573028 -0.637378 -0.515158 -0.106035 0.0459845 0.993299 0.662861 0.747972 0.0339655 0.206739 -0.828051 -0.521143 -0.152064 0.94594 0.286487 -0.926079 0.318364 0.202538 -0.927971 -0.283847 -0.241455 -0.123074 0.0155002 0.992276 0.41807 -0.759448 0.498454 -0.586629 -0.475179 0.655798 0.171549 0.12404 0.977336 -0.290704 0.952674 0.0889028 -0.239647 -0.878275 0.413765 -0.0878849 0.695493 0.713138 0.630718 0.275326 0.725527 -0.963056 -0.208694 0.170205 -0.3558 0.908967 -0.217221 0.526019 0.148846 -0.837346 0.853015 -0.219104 0.473665 -0.70907 -0.437774 -0.552788 0.256351 0.408469 -0.876035 0.709426 0.662671 -0.239962 0.782664 -0.588955 0.201416 -0.718611 0.402576 0.567037 0.612506 -0.366296 -0.700474 -0.650691 0.723542 -0.23041 0.870959 -0.489926 -0.0374512 0.066223 0.0820004 -0.99443 -0.53284 -0.809987 0.244956 0.988196 -0.153141 -0.00404057 0.0747939 -0.201369 -0.976656 0.445512 -0.861565 0.24336 -0.442825 0.476303 -0.759632 0.609439 0.613854 0.501764 0.344101 -0.26669 0.900261 -0.639592 -0.760835 -0.109782 -0.769533 0.304469 -0.561354 -0.857881 -0.379957 0.345938 -0.465053 0.0296069 -0.884787 0.931613 0.349991 0.0979978 0.329552 -0.304037 0.893844 -0.156278 -0.800486 0.578618 0.924277 0.366179 -0.107821 0.510881 0.48808 -0.707657 0.127955 -0.953108 0.274248 0.0600972 -0.0909669 -0.994039 -0.957392 -0.245514 -0.152066 0.384112 -0.335846 0.860038 0.982219 -0.112382 0.150386 0.0694151 -0.673751 -0.735691 -0.117262 0.889048 0.442542 0.48825 0.267417 0.830723 0.513997 0.669212 0.536621 -0.953357 -0.275206 0.123986 0.0682064 -0.341501 0.937403 0.536014 0.837866 0.103295 -0.176461 0.976627 -0.122727 -0.87378 -0.218702 0.434371 0.566681 -0.439598 0.696869 0.493159 0.557278 0.668009 0.429756 0.860279 -0.274279 0.594566 -0.712677 -0.372267 0.688834 -0.220116 0.690693 -0.762659 -0.598937 -0.244183 -0.0319952 -0.705296 0.70819 0.960157 -0.132935 0.24582 0.597011 0.790842 -0.134711 -0.0551633 -0.0302389 0.998019 -0.833295 0.516163 0.197979 -0.840903 -0.223644 -0.492814 -0.675855 -0.344786 0.651416 -0.257129 -0.859454 -0.441842 -0.512871 -0.659491 -0.549576 0.432294 -0.854613 -0.287679 -0.792989 0.415278 0.445772 0.945165 -0.195122 0.261897 0.068374 0.898811 0.432971 -0.872634 -0.453408 -0.18147 -0.768669 0.637849 -0.047922 -0.837043 -0.260961 -0.480893 -0.435449 -0.891934 0.121812 0.805109 -0.450736 -0.385534 0.546659 -0.835324 0.0582923 0.0210375 -0.393186 -0.919218 0.226642 -0.870696 0.436489 0.612039 -0.0275508 -0.790348 -0.721746 -0.485722 -0.49311 0.468502 -0.594111 0.653864 -0.296485 0.118398 0.94767 0.883942 0.437665 0.164608 -0.0480258 0.647862 -0.760242 -0.507184 -0.501923 -0.700598 0.544726 0.767312 -0.338387 0.476948 0.862447 0.169429 0.197211 -0.71905 0.66639 -0.306409 0.943265 -0.12792 -0.200485 0.247153 -0.948009 0.241236 -0.968189 0.0664412 -0.663287 -0.598485 0.449295 0.751773 0.242821 -0.613086 -0.489457 0.371185 0.789084 -0.648651 0.0583352 0.758847 0.473957 -0.637896 0.607003 0.387298 0.0103711 0.921896 -0.723833 -0.329457 -0.606237 0.752197 -0.33253 -0.568879 0.338452 0.28401 0.8971 -0.192253 -0.508699 -0.839204 0.270006 -0.801661 -0.533326 -0.461751 -0.679551 0.570084 0.462013 -0.681874 0.567091 -0.582939 0.748014 -0.317265 -0.528804 -0.224915 0.8184 0.267724 -0.917548 0.293988 0.755863 0.632565 0.168914 -0.0583436 0.374327 0.925459 0.669513 -0.309422 0.675285 0.736082 -0.291569 0.610877 -0.480703 0.191022 0.855824 0.946401 -0.00231968 -0.322987 0.210318 0.289249 -0.933864 0.286744 0.957748 0.0222888 -0.288802 0.129085 0.948647 -0.765329 0.518089 -0.38191 -0.0817129 0.98234 -0.168317 -0.867702 -0.487892 -0.0951525 -0.799569 0.356451 0.483355 -0.34042 -0.887566 0.310389 0.046495 -0.485366 0.873074 0.00448372 0.513638 0.857995 -0.760261 -0.180768 -0.62396 -0.0420113 0.999003 -0.0150779 0.450402 0.381817 0.807065 -0.190276 0.140572 -0.971614 0.030628 0.832143 -0.553715 -0.944297 0.284134 -0.166046 -0.428829 0.681265 0.593282 0.515467 0.397132 0.759329 -0.239606 0.970036 -0.040251 0.524816 -0.833973 0.170461 -0.95728 -0.0272778 0.287873 0.190745 0.80057 -0.568071 0.835135 0.465046 -0.293737 -0.29632 -0.954892 -0.0193962 -0.746068 -0.117791 0.655369 0.530847 -0.417346 -0.737579 -0.447328 -0.448919 0.773543 0.577045 0.380099 -0.722872 0.945818 0.227668 0.231509 0.289974 -0.0808956 0.95361 0.548974 0.0610608 -0.833606 0.469883 0.861721 -0.191434 0.156764 -0.948551 -0.275094 -0.676985 -0.689062 -0.258622 -0.302558 0.869259 -0.390957 0.84611 0.453034 0.280815 0.908787 -0.281994 0.307546 0.510305 0.407115 -0.757527 -0.757108 0.652775 -0.0259395 0.226024 -0.798762 -0.557578 -0.629485 -0.551319 -0.547537 -0.417144 -0.906785 0.061096 0.670035 0.445521 -0.593772 0.0186567 -0.891596 -0.452447 -0.214723 0.421249 -0.88116 0.206279 -0.629344 0.74925 -0.954582 -0.289913 -0.0687239 0.710346 0.359024 0.605401 0.742536 0.496263 -0.449849 -0.528202 0.100329 -0.843171 0.180147 0.877324 -0.444804 0.868516 0.152458 -0.471632 0.688368 -0.724865 -0.0268279 0.804107 0.436814 0.403245 -0.399028 -0.499518 0.768933 -0.785767 0.347598 -0.511611 0.236041 0.247346 -0.939737 0.904466 0.0405611 -0.424612 -0.406564 -0.867024 0.288052 -0.121793 -0.989258 -0.0808433 -0.200916 0.282421 -0.938015 -0.116578 -0.729787 0.673662 -0.886234 -0.337965 0.316811 -0.887467 0.346031 -0.304409 -0.265087 -0.68877 -0.674777 0.0422509 -0.617279 0.785609 -0.426683 0.145879 0.892558 0.429799 -0.838799 0.3342 0.6477 -0.0968716 -0.755712 0.0898341 -0.876886 -0.47223 -0.557865 -0.780016 0.283482 -0.415602 0.908429 -0.0450777 -0.676566 -0.159164 0.718975 0.242366 0.96723 0.0756699 0.688056 0.186854 0.701188 0.155915 -0.659098 0.735718 -0.532141 -0.845951 0.0345302 0.146105 -0.971508 -0.186614 0.97121 0.0938458 -0.21896 0.906306 -0.398734 -0.140074 0.523853 0.779848 0.342659 0.206979 -0.33843 0.917946 0.735547 0.206698 -0.645171 0.610616 -0.573352 0.546274 0.1015 0.451203 -0.886631 -0.444638 0.100577 0.890046 0.744486 0.403371 0.532007 -0.232704 -0.284837 0.929902 -0.927082 0.37481 0.00594542 0.984122 -0.0363836 -0.173724 0.0520302 0.774482 0.630453 0.0804452 0.930687 -0.356863 -0.349865 -0.936794 -0.0032923 0.0284151 0.156206 -0.987316 -0.105186 0.165644 0.98056 -0.125192 -0.473219 -0.872004 -0.952488 -0.303776 -0.0220713 -0.0515905 -0.148392 -0.987582 -0.404797 0.892157 -0.200488 -0.0155921 0.710759 0.703263 0.916503 -0.389946 -0.0892435 0.265032 -0.178463 0.947581 -0.284947 0.649821 -0.704654 -0.83441 -0.480819 -0.269396 0.885241 0.210685 -0.41468 0.103668 -0.0208062 0.994394 -0.261727 0.816559 0.51452 0.229399 -0.175507 0.957378 0.23743 -0.717852 0.654458 0.658124 0.108275 -0.745083 -0.196776 0.716392 -0.669374 -0.628353 -0.536784 -0.563058 0.902723 0.136722 0.40792 0.403378 -0.0930214 -0.910293 -0.42055 -0.326519 0.846477 0.0921555 -0.140743 0.985748 0.396545 -0.371793 -0.839359 0.11231 -0.993664 0.00428648 0.871776 0.0993991 -0.479715 0.554596 0.72784 0.403327 0.755086 -0.321755 -0.571243 0.867212 0.49785 -0.00939286 0.112126 0.819605 0.56185 0.711361 -0.616548 -0.337394 -0.946405 -0.245317 0.210087 0.0766232 -0.975381 0.206788 -0.154306 0.248681 -0.956215 -0.944258 0.327818 -0.0301966 -0.708679 -0.63552 -0.306411 0.337105 0.476055 0.812238 0.023413 -0.959929 0.279263 0.928638 0.252281 0.272004 -0.2173 0.966398 0.137317 0.915192 0.191657 0.354531 0.283867 -0.51785 -0.807001 0.807541 0.564227 0.171827 0.634886 -0.502029 0.587271 0.7525 -0.388577 0.531744 -0.491019 -0.8606 -0.135162 -0.177722 0.227961 -0.957313 -0.58233 0.235517 0.778089 0.203841 -0.712032 0.671908 0.279245 -0.909917 0.306713 -0.57683 0.646922 0.498758 0.406654 -0.0888544 0.909251 -0.575179 -0.756672 0.310832 -0.716261 0.62653 -0.307295 -0.69134 0.10254 0.715216 0.855516 0.391261 -0.339127 -0.73376 0.601056 0.316745 -0.432711 0.878563 -0.202208 0.953064 0.277846 -0.120297 -0.924892 0.282635 -0.254346 0.468316 0.571668 -0.673703 0.134379 0.986338 -0.0952815 -0.24763 -0.38247 -0.890166 -0.589431 -0.58027 0.562012 0.00184569 -0.917213 -0.398393 0.789587 -0.314734 -0.526779 0.273978 -0.824499 0.495113 0.787741 0.602479 -0.128386 0.965335 0.257293 -0.0439253 0.600928 0.352174 0.717537 0.776572 -0.513709 0.364746 0.264939 0.350941 -0.898136 -0.181519 -0.601684 -0.777835 0.895699 -0.136236 0.423277 -0.967214 -0.0691849 0.244359 -0.702197 0.100047 -0.704918 0.265016 0.169232 -0.949277 -0.0699556 -0.99262 -0.0990568 -0.752405 -0.6587 -0.000723948 0.167862 0.143131 0.975364 0.865403 -0.198823 0.459942 -0.773171 0.123385 0.622079 0.467514 0.343693 -0.814436 -0.0493589 0.940626 -0.335836 0.111282 0.189064 -0.975639 0.160641 -0.751563 -0.639802 -0.87558 -0.408054 -0.258556 -0.74869 -0.0855721 -0.657374 -0.848466 -0.0929045 -0.521033 0.396828 0.181601 -0.899749 -0.680946 -0.351191 0.642633 0.585779 -0.734867 0.341809 0.265311 0.961897 -0.0660578 0.85347 -0.0630021 0.51732 -0.489463 0.852158 0.185073 -0.282535 0.728589 0.623965 0.918977 0.267461 0.289735 -0.905055 0.300878 -0.300578 -0.44162 -0.359267 0.822131 0.319998 0.461262 -0.82755 -0.812757 -0.241858 -0.530028 0.870927 0.3351 -0.359435 -0.895119 0.366086 0.254445 -0.927418 0.180418 -0.327635 -0.316615 0.48997 0.812209 0.492156 -0.657186 -0.570867 0.869096 -0.375955 0.32145 0.990962 0.00848883 -0.133877 -0.0854901 -0.948337 -0.305531 0.158883 -0.115556 -0.980512 0.283912 -0.0125587 -0.958768 0.0339748 -0.126314 0.991408 -0.897241 0.394649 0.198018 0.363543 0.619679 0.695581 0.436548 0.829602 -0.348119 0.951876 -0.0156523 0.306082 -0.315992 0.744925 0.587568 0.363719 -0.0877477 -0.927367 0.139056 0.551844 -0.822273 -0.301677 0.53519 0.789026 -0.461073 0.863679 -0.203644 0.993321 -0.0748547 -0.087811 -0.0676764 -0.186382 -0.980144 0.933262 0.162583 -0.320295 0.719795 -0.665171 0.198604 -0.619746 0.7847 0.0127124 -0.065075 -0.526304 -0.847803 0.233784 -0.96915 0.0780554 -0.213467 -0.827753 0.518899 -0.357346 -0.748776 -0.558245 -0.0239199 -0.91534 0.40197 -0.890188 -0.145787 -0.431639 0.824471 0.49549 -0.273382 -0.391366 0.309753 0.866537 0.496396 0.237115 -0.835085 0.370552 -0.905808 -0.205433 -0.813528 0.336582 -0.47422 0.209679 0.977767 -0.0026202 0.903336 0.377529 0.203607 -0.729727 -0.159966 -0.664762 -0.874898 0.246767 -0.416725 0.118937 0.207755 -0.970923 -0.9021 0.378012 -0.208138 -0.991337 -0.0814898 -0.103006 -0.980536 -0.183037 0.0710412 -0.23093 0.814046 0.532916 0.733431 0.640225 -0.228452 0.713572 0.11851 -0.690485 0.516959 -0.844021 0.142765 0.450811 -0.80027 -0.395395 -0.860762 -0.316065 0.398989 -0.702215 0.688385 0.181716 0.252709 -0.656235 0.710981 -0.48213 0.634043 0.604599 -0.826371 0.204691 -0.524607 0.816355 -0.199043 0.542169 -0.714789 -0.0908167 0.693418 -0.855193 0.220141 -0.469237 -0.747028 -0.156059 0.646216 -0.0114343 -0.0215494 0.999702 -0.296009 -0.894629 -0.33469 0.827968 -0.559096 -0.0433704 -0.73723 0.125196 0.663941 -0.129076 -0.753895 -0.644191 0.30147 -0.936796 -0.177564 -0.16423 0.311787 -0.935851 0.913958 0.105604 0.391826 0.402119 -0.136306 0.905385 -0.328996 0.854116 0.4028 -0.0752591 -0.813117 -0.577215 0.34072 -0.936373 0.0843482 -0.604449 -0.524722 0.599424 0.557918 0.819961 0.128027 0.146545 -0.608083 -0.78023 0.112043 0.395682 0.911527 -0.527048 0.754959 -0.390202 0.826157 0.47332 0.305666 0.322737 -0.757754 0.567141 -0.917201 -0.363144 -0.163916 -0.162815 0.767034 -0.620605 -0.753195 0.265672 0.60176 0.497301 0.727377 0.472879 0.784265 -0.620319 -0.0114992 0.233571 0.0864982 0.968485 -0.140854 -0.113929 -0.983453 0.0848977 -0.81285 0.576253 -0.499834 0.607505 0.617336 -0.957728 0.269111 0.101669 -0.00585097 0.536582 0.843828 -0.292579 -0.639612 0.71084 -0.879839 -0.236672 -0.412153 0.771641 -0.197534 0.604607 0.417922 -0.448524 0.790043 -0.425174 -0.862752 0.273652 -0.109665 0.767093 -0.632093 -0.202226 0.611754 0.764762 -0.0917597 -0.894564 0.437418 0.476246 0.706606 -0.523352 -0.946873 -0.250564 -0.201615 0.0945378 0.300688 0.949026 0.828673 -0.503157 -0.245223 -0.307399 -0.650668 -0.694361 0.109107 -0.430239 0.896097 -0.579877 0.770925 0.263474 0.769831 -0.459019 -0.443466 0.404649 -0.183324 0.895908 -0.755251 -0.653353 0.0522029 0.281381 -0.434851 0.855412 0.918654 -0.395037 -0.00459016 0.569571 0.814915 -0.10725 0.537718 -0.423084 0.729287 0.714555 0.618377 -0.32714 -0.785182 -0.589045 -0.191088 -0.377213 0.400778 -0.834917 -0.105722 0.126936 0.986261 0.0935726 -0.780977 0.61751 0.199295 -0.907912 -0.36875 -0.0965909 -0.614205 -0.783213 0.0294211 0.9613 -0.273929 -0.106482 -0.0579952 -0.992622 0.289353 -0.571724 0.767728 0.857168 -0.000102502 0.515037 0.900107 -0.107477 -0.422203 -0.861539 0.493915 -0.117468 -0.0520219 0.154037 0.986695 0.83884 0.0790768 0.538604 -0.305696 0.670769 -0.675736 -0.847985 -0.529262 0.0283362 0.65985 0.495066 0.565251 -0.362853 -0.0789234 -0.928498 0.612694 -0.277896 -0.739851 0.0959731 -0.34707 0.932916 0.265925 -0.695481 0.667525 -0.592455 -0.803467 -0.058637 0.384629 0.783006 0.488838 0.393108 0.827396 -0.401101 -0.0072422 0.195729 0.980631 -0.767948 0.407066 0.494524 0.309807 -0.707224 -0.635495 -0.791496 -0.0144124 -0.611004 -0.636344 -0.735614 -0.232247 0.248321 0.662505 0.706699 -0.999313 0.0365941 -0.00593609 -0.604204 -0.409116 0.683785 0.0468886 0.738077 -0.673085 -0.881701 0.455544 -0.122811 -0.510651 -0.804384 0.30365 0.588023 0.600161 0.54225 0.641777 0.640361 0.421971 -0.598017 0.701798 -0.387112 -0.267944 0.962157 -0.0496041 -0.437569 0.355216 -0.826048 0.179151 0.981984 0.0600959 -0.724326 0.684845 -0.0796128 0.965933 0.171546 -0.193767 -0.571992 -0.553067 -0.605758 -0.491768 0.704122 0.512227 0.237168 0.734376 0.635959 -0.620544 0.564139 -0.544676 -0.0700841 -0.423388 -0.903233 0.0173724 -0.900569 -0.434366 -0.229192 0.882276 -0.411169 -0.841239 0.321972 -0.43434 -0.547488 -0.835171 0.0523982 0.39054 0.520303 -0.75945 -0.834961 0.0947209 0.542096 -0.120809 -0.542816 0.831117 0.714152 -0.637537 0.289022 0.845214 -0.401786 0.352394 -0.0141497 0.835647 0.549085 -0.87497