# vtk DataFile Version 4.0
Generated by libgran
ASCII
DATASET POLYDATA
POINTS 1686 FLOAT
-32.5912 1.92861 5.72194 -31.1207 1.27487 6.78546 -33.4151 1.98864 4.14011 -32.4057 3.00839 5.20904 -32.8433 -1.53132 6.82117 -34.063 2.51976 3.14784 -30.4188 0.157829 11.4579 -29.8006 -1.4386 11.8894 -31.1681 0.691235 10.4976 -31.0362 -0.353382 9.05078 -30.8754 1.37371 9.12959 -30.3761 1.64896 7.94906 -28.8966 -2.93507 14.3659 -28.2049 -2.35396 13.3903 -28.5667 -1.26636 13.421 -28.354 0.428628 13.0262 -27.8064 0.830894 13.7599 -27.9589 1.43277 12.3773 -29.4132 -4.91149 12.0973 -29.9742 -7.10668 13.2389 -29.9097 -5.87063 12.7531 -30.2341 -6.32851 14.4095 -29.4804 -7.9478 12.3281 -30.0405 -5.92889 15.537 -31.4895 -5.75099 15.6093 -32.4105 -6.00694 16.3451 -32.145 -4.89109 17.0037 -31.9967 -5.60031 20.0266 -33.3114 -6.39852 19.8758 -32.3423 -5.39141 18.6601 -31.2076 -6.01379 21.0137 -30.0993 -7.43998 21.1441 -34.0712 -6.43589 21.378 -31.168 -4.68389 17.8888 -27.6109 -7.82811 19.5507 -28.3717 -9.03548 19.6071 -26.3435 -8.15362 19.3141 -25.2602 -8.18293 19.0792 -24.7295 -6.74951 20.0485 -25.2259 -6.00403 21.5456 -24.5734 -5.28723 19.9132 -27.4957 -9.95001 20.6902 -19.5525 -13.164 23.3522 -20.4284 -12.7791 22.4288 -21.8429 -13.4448 22.6112 -18.8696 -12.0503 24.8236 -20.1688 -11.6314 25.3117 -23.4107 -14.0153 22.9795 -24.9473 -11.931 19.9054 -24.0546 -11.831 18.8262 -24.6653 -12.9757 20.6781 -26.0346 -12.2842 21.0478 -24.0367 -13.8582 21.8729 -26.6301 -10.9449 21.5677 -23.7187 -13.4521 17.9922 -24.2914 -14.811 17.1512 -23.8076 -17.048 17.9907 -23.9121 -17.2093 16.6747 -24.7303 -16.0496 16.8991 -22.1369 -16.8191 18.3707 -22.2865 -17.4581 15.7114 -20.5297 -17.1349 18.3521 -20.7047 -18.0623 18.979 -22.5063 -16.7987 11.5586 -23.6455 -16.8643 11.7208 -23.1987 -15.2597 11.941 -21.2551 -17.2448 11.6175 -21.9002 -18.2678 10.4863 -20.4386 -16.6997 13.2025 -20.8352 -16.8544 14.7737 -37.4042 16.9236 4.43868 -37.786 16.4262 2.55603 -37.5286 15.4872 2.32803 -36.4192 17.6406 5.46834 -35.7139 17.6189 6.30862 -34.8803 18.1607 6.20062 -34.9821 17.5512 6.98678 -40.9369 15.5565 2.52594 -41.9396 16.2985 2.06747 -40.1146 16.9995 2.04888 -40.0601 15.1538 3.07798 -41.0393 13.763 2.53841 -41.7225 12.6574 2.90764 -42.3475 11.4631 3.54135 -46.6891 11.821 3.94798 -47.0357 10.8518 3.38359 -47.6782 13.0724 3.36983 -45.9105 13.3786 4.92718 -43.2798 10.937 3.54295 -42.4661 10.0313 2.48504 -43.042 10.4056 1.35062 -42.8281 9.53578 0.640627 -42.453 8.62993 1.88236 -43.1671 11.9897 0.594075 -44.4949 10.8759 1.09701 -43.4599 12.5055 -0.606661 -42.5974 7.24293 1.29715 -42.6207 7.03842 2.90457 -45.0294 9.97575 -5.47854 -44.3904 10.0175 -6.6438 -45.0916 8.37595 -6.46944 -46.1116 11.6302 -6.70134 -46.8656 11.0476 -7.18667 -46.8815 11.4943 -5.34189 -48.0753 10.5938 -7.70362 -47.6356 10.9116 -5.82722 -45.7524 6.70157 -6.31691 -46.1424 11.5287 -3.30149 -47.052 11.5837 -4.28434 -46.0122 11.2957 -2.10371 -46.1217 10.8982 -1.05754 -46.6431 10.3306 -0.24432 -45.6566 10.2461 0.151749 -47.9117 11.4956 -0.0223087 -45.8464 11.3429 1.48347 -44.2242 6.62561 -9.64903 -43.6021 6.8942 -11.2191 -43.4414 5.59827 -9.74827 -44.365 7.83995 -9.1259 -44.909 9.05373 -9.31285 -46.3659 8.87437 -8.56003 -43.5884 3.99489 -9.22236 -47.5501 8.37923 -8.61541 -44.6852 3.28905 -5.53287 -44.3957 4.60086 -5.36539 -45.6308 5.01593 -5.79543 -43.5457 6.0285 -5.24644 -25.4956 14.3128 19.6614 -26.1421 15.0261 20.5786 -24.8353 15.7279 19.9738 -26.6333 13.1843 18.7067 -28.2954 12.939 20.2548 -28.6105 10.5116 18.0095 -29.1934 12.2386 17.5887 -29.1085 9.40523 17.5985 -28.3684 8.63969 17.8046 -28.5553 12.4878 16.8602 -30.6191 8.6527 17.9091 -29.9401 9.6352 16.4082 -30.8064 7.92146 19.418 -25.9209 5.52574 12.1999 -25.6691 4.44465 11.9535 -26.3312 6.57988 12.8988 -27.8275 5.85169 12.5585 -27.1226 3.56797 12.5313 -26.7501 3.34673 11.0929 -27.5597 2.83978 13.85 -26.3054 2.57658 9.96957 -25.8694 2.75247 9.00382 -29.0043 9.62325 15.21 -30.2518 9.58036 14.752 -27.8802 10.0334 14.4896 -30.2683 8.29491 13.516 -31.4413 9.65231 13.7218 -30.7583 7.07294 13.2184 -29.3461 6.67507 12.8688 -33.7761 7.13876 4.79291 -34.9464 6.672 4.3681 -33.1475 7.99902 5.30617 -32.651 6.36292 5.81344 -36.5154 6.12737 5.36054 -34.3999 4.58863 6.1402 -37.7025 6.77503 5.23256 -37.8343 6.95656 3.73447 -41.001 5.83402 4.50257 -39.4853 5.29201 4.20025 -42.2288 6.33274 4.40883 -42.9287 5.92578 2.7598 -38.5718 6.76473 3.02728 -38.7075 4.44685 5.24091 -32.0227 6.98082 10.9919 -31.5727 9.48115 10.5049 -32.7288 9.5033 11.8197 -32.8276 9.64072 12.914 -33.5448 8.5203 13.2061 -31.8837 11.1523 13.3167 -33.8318 7.09255 13.6152 -34.3575 4.10016 8.78041 -33.7053 4.12582 9.93883 -33.7495 4.1549 6.89025 -32.9184 4.52208 11.0233 -26.0954 23.6808 29.6581 -26.6921 22.5396 30.2967 -27.1517 23.715 30.9088 -25.03 23.571 28.8701 -25.8362 24.922 28.4141 -26.5084 25.74 27.4857 -22.887 24.347 31.1365 -22.6512 24.6778 33.446 -23.585 25.2538 34.5722 -22.3205 24.4344 32.1813 -21.8288 24.1323 31.2325 -23.8008 26.1321 31.6258 -23.6018 25.4121 35.799 -25.3258 28.3199 36.0863 -24.8487 29.2561 36.9041 -25.8892 30.1729 36.284 -25.7419 27.7278 35.2465 -24.8478 26.9805 34.9051 -23.1666 29.7221 37.8075 -25.6562 26.1725 34.257 -20.5501 26.5119 38.0035 -20.6096 25.2372 38.3776 -20.4368 27.5968 37.8487 -19.3636 28.3022 38.5257 -20.4135 29.0943 38.0566 -17.7925 28.0398 39.2113 -17.9367 29.2234 38.6789 -21.4027 30.0307 37.8548 -19.4924 30.0836 37.3498 -28.9259 25.1395 37.8113 -29.0382 26.3195 35.478 -31.5175 24.6084 36.127 -31.3164 23.5062 35.2511 -30.8723 22.9268 33.4946 -27.658 24.9997 38.202 -32.2122 20.4055 31.6211 -32.8665 21.1019 33.1345 -30.9809 20.508 31.1264 -30.1156 20.4203 30.633 -33.1097 22.1038 34.4095 -33.8812 21.471 34.3437 -35.7358 21.495 34.3339 -36.5607 21.1898 33.1148 -36.02 20.4207 32.6114 -37.7946 22.5124 32.4421 -38.1148 22.2555 34.1137 -38.652 23.0067 33.199 -36.8914 20.3243 34.527 -37.9798 23.1874 35.7415 -38.3202 24.2971 33.9142 -41.7262 23.786 37.5038 -41.1823 24.896 37.0138 -40.3036 24.1277 36.3994 -38.9425 24.0819 35.97 -41.7876 25.09 34.4054 -37.8625 24.2835 35.4995 -34.4271 6.8664 22.5555 -34.3295 5.62738 23.0267 -35.8413 6.60514 23.386 -33.1211 7.15904 21.5919 -34.395 8.24122 22.0504 -31.6345 6.30542 20.8573 -30.698 5.89557 19.8255 -31.1601 5.15205 19.0886 -29.6485 5.82355 18.8219 -31.6085 4.12457 18.3736 -31.2246 3.48681 19.6014 -27.649 4.81677 17.7042 -27.509 5.90663 17.4298 -39.2795 6.99168 22.9051 -39.598 5.9736 23.6989 -41.027 5.55979 23.0425 -39.6679 8.26853 23.5806 -41.0053 7.95508 23.0549 -37.6643 5.33869 20.3857 -37.9158 6.64956 21.4833 -36.8957 4.87564 21.0615 -36.1353 4.42866 21.5328 -34.6842 5.24266 20.7046 -35.095 3.82272 21.706 -30.1281 15.5586 23.1937 -31.1376 15.3847 24.0415 -29.7881 15.3063 25.044 -29.0891 15.3737 22.3419 -30.0008 14.8069 21.4582 -32.219 16.0112 24.3441 -31.8481 17.1673 25.6177 -30.8398 18.1148 26.9731 -32.3839 9.66635 20.7541 -31.3458 9.62003 21.5476 -30.9049 10.7914 20.688 -33.5201 10.3574 20.7623 -34.1958 9.16701 21.3556 -29.7879 11.209 21.4579 -29.8709 12.2048 21.4186 -29.9219 19.6611 27.2284 -29.7276 18.0925 27.1155 -30.6077 19.8095 29.4266 -32.0635 19.4342 28.4971 -29.1333 16.6822 27.4281 -28.1737 15.8519 28.3576 -32.1155 19.6724 26.1209 -32.7738 18.8622 27.258 -32.3409 20.9815 26.1807 -34.0138 21.2859 25.8906 -35.5341 20.7292 26.057 -35.7663 21.9492 24.2199 -5.7855 24.9538 42.5882 -4.84033 24.7663 42.8556 -7.09263 24.7107 42.4988 -5.35749 24.0857 42.3365 -7.8085 26.0632 43.3247 -8.75807 24.6928 42.7664 -8.64769 25.7879 42.8557 -8.57358 26.703 43.2521 -4.85095 23.0142 42.7655 -3.61019 23.4279 42.236 -4.74627 21.2955 43.0169 -9.61643 23.8084 41.7012 -6.45338 19.7173 44.1565 -6.27365 20.6355 42.9362 -7.44734 18.6739 44.2641 -8.04154 17.7458 44.4678 -4.48484 20.6256 44.052 -0.901744 24.4368 43.3883 -1.8314 24.6229 42.456 -2.29823 23.4787 42.5525 0.534719 25.6265 43.1776 -1.38843 26.1086 41.8153 -2.61847 22.26 42.5589 -1.19963 27.9129 41.7974 1.92489 29.6891 42.2941 2.34937 28.5069 43.3541 -0.828392 29.4313 41.1695 3.33863 27.7541 42.8386 -1.98093 29.2563 42.4165 -19.811 34.763 44.8282 -18.6347 34.1593 44.6878 -19.9925 35.0074 46.5031 -21.141 34.3882 45.095 -17.6724 33.2365 47.3452 -18.0989 33.9032 48.7853 -17.1022 32.3467 45.9715 -14.9174 30.8305 44.1771 -15.668 30.9882 45.2631 -14.1967 29.3436 44.2654 -16.7166 31.0706 45.4948 -16.6899 30.1294 46.6579 -15.8891 29.4171 46.1675 -12.9927 29.3067 45.0246 -13.8223 29.0751 45.773 -16.5803 29.6337 48.1674 -11.2713 25.8176 46.4514 -12.4857 26.3196 46.6675 -11.0465 26.0781 45.5125 -10.3212 25.7962 46.1405 -12.6801 27.4953 47.5091 -13.2735 26.6991 48.4524 -13.14 28.9632 47.0966 -10.1653 27.0348 45.0047 -14.7639 28.991 46.5891 -9.51808 28.553 42.5624 -9.06775 27.3001 42.4368 -10.2739 28.4731 43.921 -10.3031 29.4717 43.8769 -11.0754 28.7444 42.4148 -10.2636 29.0114 44.7637 -19.2428 38.3419 39.9573 -19.8276 38.2036 38.1486 -18.7316 39.526 40.2827 -19.5814 40.7048 39.5848 -19.08 41.0491 40.3785 -20.0078 41.3734 40.194 -20.7146 42.0078 39.3967 -19.4845 37.5385 37.3273 -20.9464 38.3828 37.4321 -19.269 42.5358 40.4639 -21.707 45.3345 42.1485 -22.8985 43.9476 42.3175 -23.3386 44.7678 43.0189 -22.6891 42.605 41.5023 -23.719 42.5392 42.9775 -21.5346 42.5948 40.078 -19.9758 43.1701 39.6666 -24.6228 46.6653 43.323 -24.2982 46.8847 41.5544 -23.8599 47.3765 44.1477 -24.239 45.5865 43.9623 -24.4118 46.3148 40.4292 -23.9767 47.8624 40.3854 -22.2666 46.5265 46.1192 -22.0591 47.3066 49.3895 -22.3946 48.0637 48.3491 -23.6759 48.3224 49.0513 -21.6289 47.7096 47.0401 -21.1951 48.9983 45.875 -24.8595 48.1137 49.0348 -15.8923 29.4783 41.4584 -15.1898 29.0054 40.4335 -15.4108 30.3089 39.971 -14.9682 27.4916 40.7674 -16.5582 30.4039 38.9906 -14.0531 27.2464 42.1278 -12.5877 28.0841 42.2592 -18.0119 30.1655 38.044 -18.3381 31.1006 36.7192 -17.6386 30.386 36.7323 -17.459 31.253 36.2675 -18.6461 32.671 38.1698 -18.2511 32.5621 39.342 -21.1456 31.3925 39.7623 -21.6728 32.045 38.3274 -21.8729 36.4915 42.6759 -23.2355 35.577 43.2736 -21.0798 35.5522 42.1692 -21.3828 34.9004 41.1085 -23.8392 33.9478 44.1277 -24.09
[...]
POINT_DATA 1686
FIELD FieldData 1
normals 3 1686 double
-0.564507 0.444172 -0.695732 0.905985 -0.209573 0.367791 -0.259349 -0.384146 -0.886098 0.750047 0.63561 0.182839 -0.643452 -0.689882 -0.331711 -0.388587 0.915275 -0.10617 -0.703981 0.709846 0.0229883 -0.0857845 -0.886578 0.454555 -0.0453159 -0.17644 -0.983268 0.177216 -0.868177 -0.463533 0.338005 0.858919 -0.384722 0.161308 -0.58367 -0.795807 -0.0210494 -0.944159 0.328816 0.67071 -0.36304 -0.6468 0.308919 0.724556 -0.616107 -0.0962996 0.970431 0.221336 -0.643978 0.568165 -0.512328 0.491442 0.0337156 -0.870257 -0.790654 -0.572105 -0.218085 -0.358653 -0.849006 -0.388016 -0.294172 0.387042 -0.873877 -0.618578 -0.0708379 0.782524 0.852388 0.0078899 -0.52285 0.812187 0.47046 0.344992 -0.636823 0.648356 0.417241 -0.284175 -0.904302 0.318563 -0.0187335 0.21155 0.977188 0.524165 0.502969 0.687221 -0.790571 -0.29524 0.536499 0.178535 0.71187 -0.679239 0.264896 -0.916451 0.299912 0.843454 -0.50974 -0.169559 0.0308238 0.257863 0.96569 0.995739 -0.00435655 -0.092118 0.855985 0.324135 0.402774 0.0951599 -0.883237 0.459171 0.411323 -0.649653 -0.639346 0.671992 0.620351 0.404464 -0.141226 0.813062 0.564788 -0.355162 -0.0675821 0.932359 0.297321 0.649223 -0.700078 0.780823 -0.0312947 0.623969 -0.173189 0.889832 -0.422142 -0.70268 -0.504946 -0.50127 -0.711827 -0.160813 0.683697 0.905564 0.413013 -0.0968178 -0.393624 0.831852 0.391257 -0.856006 -0.40961 -0.315395 -0.576637 -0.728927 0.368992 0.316121 -0.628954 -0.710271 0.858671 -0.315836 0.403647 -0.510661 0.375683 0.773362 -0.230062 -0.566649 0.791189 -0.0848015 0.963613 -0.253494 0.0197373 -0.99212 -0.123728 -0.592448 -0.3668 -0.717261 0.76912 -0.126542 0.626451 0.664635 -0.287901 -0.689473 -0.15355 0.871819 -0.46514 0.901661 0.355381 -0.246397 0.960974 0.0390972 -0.273864 0.70545 -0.671149 0.227815 0.880412 0.256213 -0.399036 0.528454 -0.581212 -0.618812 -0.610776 -0.64688 -0.456617 -0.163924 0.957733 -0.236383 0.722763 0.135121 0.677758 0.0776148 -0.887894 -0.453453 0.0937544 0.409957 0.907274 -0.490358 -0.564656 0.663862 0.177833 0.129185 0.975544 -0.204046 -0.368158 -0.907097 -0.461479 0.570844 -0.679098 0.807123 0.587898 0.0541186 -0.101767 -0.609587 0.78616 0.731778 -0.067795 0.678162 0.833546 0.541792 -0.107998 0.0149979 -0.897515 0.440729 -0.987674 -0.155515 -0.0177374 0.837324 0.545498 -0.0363318 0.86184 0.494813 0.111318 -0.117418 -0.895997 -0.428254 -0.565761 -0.209598 0.797485 -0.05922 -0.984718 -0.163776 -0.570876 0.794535 0.206916 -0.917464 -0.174569 -0.35747 -0.418222 0.456901 -0.785068 -0.541836 0.831036 0.125666 0.873092 -0.458652 -0.165374 0.0593442 0.447045 0.892541 -0.516615 0.821344 -0.241873 -0.302651 -0.0484665 -0.951868 0.0724263 -0.954323 0.289865 0.391523 0.762771 -0.514674 -0.936296 -0.351014 -0.0117378 -0.684336 -0.246989 -0.686062 -0.216877 -0.432674 -0.875075 -0.24015 -0.637179 0.732346 -0.263383 0.721768 0.640062 0.375674 0.763567 -0.525199 -0.325537 -0.87803 -0.350841 -0.169125 0.4861 0.857382 -0.923181 -0.0965217 0.372049 -0.600794 -0.622071 0.502069 -0.286427 -0.357257 -0.889003 0.153264 -0.0394488 0.987398 -0.335316 -0.796351 0.503377 0.479342 -0.76654 0.427372 -0.430284 -0.711545 -0.55548 -0.349145 0.533456 0.770404 0.239631 -0.930876 0.275765 -0.761072 0.363196 0.537455 0.225425 0.278775 0.933524 -0.507459 0.801861 -0.315444 -0.415189 0.817957 0.398201 -0.538104 0.33182 0.774816 0.083938 0.600408 -0.795276 0.244638 -0.695518 0.675579 0.397269 0.882515 -0.251684 -0.941312 0.331271 0.0647386 -0.515562 -0.510634 0.688076 -0.391645 -0.907862 -0.149669 -0.668605 0.0154935 -0.743456 -0.488566 0.837582 -0.244456 0.778085 0.474229 0.411935 -0.456979 0.889293 -0.0181021 0.0719553 0.953405 -0.292986 -0.329507 -0.577401 -0.747016 -0.975995 0.135924 0.170169 0.330777 0.837685 -0.434593 -0.808191 -0.551084 -0.207689 -0.766375 -0.267763 -0.583929 0.432593 -0.894545 -0.112482 -0.150354 0.832456 -0.533302 -0.930592 -0.211784 -0.298574 -0.190488 -0.977327 -0.0924476 -0.788532 0.583202 0.195173 -0.580032 -0.540741 0.609231 0.0990202 0.441756 -0.891654 0.392748 -0.1905 0.899699 -0.915659 0.333553 0.224299 -0.663855 -0.747536 -0.0220645 0.505426 0.720585 0.474659 -0.990904 -0.00760499 0.134357 -0.789651 -0.129142 0.599811 -0.417123 -0.350387 -0.838593 0.352602 -0.599052 0.718894 0.861833 -0.419759 -0.284687 -0.425856 0.595648 -0.681066 0.836745 -0.453703 -0.306615 -0.410805 -0.496599 -0.76461 0.287313 0.863871 -0.413737 0.394379 -0.788849 -0.471362 -0.778602 0.568553 -0.265568 -0.884429 -0.433121 0.173756 0.527755 -0.830989 -0.175874 0.451205 -0.0484542 0.891104 -0.719114 -0.515217 0.46629 0.177417 0.908709 -0.377852 0.673915 -0.727385 0.129419 -0.849884 -0.0294112 0.526148 0.936128 -0.290922 -0.197557 -0.33718 0.677071 -0.654129 0.205367 -0.495542 -0.843956 -0.595803 0.430219 0.678181 0.91991 -0.111794 0.375855 -0.632021 0.0685001 -0.771918 -0.0678508 -0.475462 -0.877116 0.942895 -0.303716 -0.136771 -0.142114 -0.733371 0.664809 0.435804 -0.779612 0.449755 -0.449463 0.464865 0.762813 -0.706625 -0.442714 0.551983 0.607784 0.580141 0.54225 -0.109353 -0.540279 0.83435 0.336116 0.931422 -0.139564 -0.177619 -0.887476 -0.42525 0.322217 -0.0880668 -0.942561 0.974428 -0.0624077 0.215858 0.285737 0.142811 -0.947607 -0.187601 0.458675 0.868575 0.163046 0.292711 -0.942197 -0.433623 -0.848418 -0.303574 -0.893275 0.326967 0.308467 0.902333 -0.402516 0.154194 0.0961915 0.948488 -0.301857 -0.768452 -0.130486 -0.626463 0.672727 0.693884 0.256834 0.224425 -0.849917 -0.476732 -0.709425 -0.27391 0.649376 0.106236 0.606483 -0.787967 0.385429 -0.908609 -0.160854 -0.249611 -0.541007 -0.803122 0.692592 0.432185 0.577523 0.376843 -0.876072 -0.30081 0.853916 0.0601967 0.516918 -0.186539 0.977017 -0.103159 -0.792946 0.284055 -0.539026 0.101145 -0.463306 -0.880408 0.82821 0.405777 0.386541 -0.909546 -0.344661 0.232237 0.0363504 0.426674 -0.903675 -0.0231288 -0.847963 -0.52955 0.0769401 0.658216 0.748887 0.996295 0.0471988 -0.071887 -0.0535822 0.839301 -0.541019 0.574841 -0.309515 0.757468 0.430601 0.874032 0.225058 -0.935662 0.0971558 0.339259 0.974688 0.150005 -0.165776 0.409233 -0.473169 0.780153 0.974601 0.0628934 0.214936 0.220711 -0.968544 0.11493 -0.0196347 -0.133602 -0.990841 0.463716 -0.445842 -0.765632 0.858647 0.333303 -0.389402 0.564203 -0.642157 -0.51895 -0.0901509 0.0542536 0.994449 0.66705 0.744618 0.0242647 0.19828 -0.832272 -0.517696 -0.153017 0.947566 0.280542 -0.924544 0.314778 0.214788 -0.930056 -0.290718 -0.224673 -0.105189 0.0145171 0.994346 0.435487 -0.754554 0.490917 -0.534723 -0.451325 0.714407 0.21455 0.194384 0.957175 -0.322727 0.94554 0.0424468 -0.225579 -0.880062 0.417858 -0.0795684 0.737548 0.67059 0.654535 0.344909 0.672772 -0.944731 -0.230578 0.233059 -0.40079 0.879405 -0.256931 0.47789 0.111073 -0.871369 0.883177 -0.156884 0.442025 -0.718994 -0.551083 -0.423503 0.196829 0.358518 -0.912537 0.696347 0.66703 -0.2649 0.793883 -0.571991 0.206339 -0.717908 0.405776 0.565645 0.609648 -0.374385 -0.698688 -0.66433 0.707799 -0.240178 0.876951 -0.479234 -0.0359391 0.0595339 0.0693822 -0.995812 -0.521682 -0.812901 0.258922 0.989921 -0.141406 -0.00781102 0.0732959 -0.214578 -0.973953 0.457223 -0.852344 0.253885 -0.454057 0.453695 -0.766807 0.594038 0.63616 0.492361 0.344662 -0.276703 0.897019 -0.663099 -0.741378 -0.103237 -0.765968 0.327575 -0.553161 -0.864238 -0.357279 0.354182 -0.473169 0.0438383 -0.87988 0.939677 0.329787 0.0908169 0.328961 -0.313456 0.890803 -0.171024 -0.792832 0.584951 0.931386 0.345849 -0.113618 0.519781 0.468156 -0.714603 0.108917 -0.95179 0.286763 0.0545442 -0.0837154 -0.994996 -0.954956 -0.257662 -0.147209 0.394544 -0.336079 0.855211 0.984517 -0.101197 0.143127 0.0727838 -0.668017 -0.740578 -0.12641 0.884151 0.449776 0.497312 0.271943 0.823849 0.510949 0.675605 0.531497 -0.948289 -0.281356 0.146926 0.0898423 -0.327682 0.940507 0.530745 0.843667 0.0808383 -0.187908 0.972353 -0.138636 -0.8636 -0.217987 0.454617 0.586246 -0.426048 0.689056 0.503219 0.569724 0.649758 0.407006 0.87068 -0.276156 0.601275 -0.697904 -0.389099 0.690447 -0.22148 0.688643 -0.765341 -0.596826 -0.240939 -0.00694326 -0.712422 0.701717 0.966544 -0.117873 0.227813 0.603095 0.785494 -0.138836 -0.0551177 -0.0247876 0.998172 -0.828486 0.523596 0.198641 -0.844408 -0.219189 -0.488806 -0.675832 -0.337592 0.655197 -0.265225 -0.859125 -0.437677 -0.517159 -0.68055 -0.519036 0.428009 -0.868038 -0.25163 -0.789975 0.437443 0.429632 0.945168 -0.187489 0.267405 0.0741094 0.915103 0.396352 -0.87546 -0.455319 -0.162032 -0.765089 0.639814 -0.0726496 -0.839198 -0.275289 -0.469002 -0.438631 -0.884027 0.161553 0.802135 -0.470306 -0.367956 0.54331 -0.834707 0.0898781 0.017091 -0.429048 -0.90312 -0.00499924 -0.971457 0.237162 0.174728 -0.0532802 -0.983174 -0.988961 -0.0719196 -0.129553 0.394764 -0.856236 0.3332 -0.281877 0.164815 0.945188 0.886665 0.436953 0.151319 -0.0429908 0.623062 -0.78099 -0.509821 -0.521117 -0.684485 0.549798 0.752769 -0.362023 0.485959 0.86265 0.140282 0.189583 -0.697667 0.690883 -0.297155 0.941633 -0.1582 -0.191809 0.21504 -0.957584 0.232677 -0.96715 0.10238 -0.66839 -0.576736 0.469713 0.756576 0.214305 -0.617791 -0.484144 0.401714 0.777323 -0.612024 0.0890174 0.785813 0.564352 -0.514703 0.645436 0.430576 0.155337 0.889086 -0.717951 -0.463853 -0.519024 0.756343 -0.356373 -0.548584 0.329864 0.310328 0.891564 -0.186144 -0.533409 -0.825121 0.273845 -0.818009 -0.505836 -0.47682 -0.660292 0.580222 0.446806 -0.668844 0.594149 -0.57175 0.742729 -0.348505 -0.54509 -0.198468 0.814547 0.2558 -0.910747 0.3242 0.757202 0.631987 0.16504 -0.0723579 0.400387 0.913485 0.654718 -0.297226 0.694983 0.725372 -0.281905 0.627985 -0.48902 0.220124 0.844041 0.950192 -0.0213474 -0.310932 0.22482 0.260558 -0.938917 0.294649 0.955602 -0.0024561 -0.298754 0.159379 0.940927 -0.754584 0.512309 -0.410053 -0.0690129 0.978001 -0.196855 -0.869313 -0.484574 -0.0973755 -0.795365 0.380507 0.471814 -0.345032 -0.87238 0.346275 0.0395433 -0.460366 0.886848 0.0103138 0.538233 0.842733 -0.761976 -0.189101 -0.619382 -0.0292295 0.998599 -0.0441143 0.433212 0.329521 0.838894 -0.151541 0.19121 -0.96978 0.0779861 0.854559 -0.513465 -0.927808 0.32427 -0.184451 -0.426355 0.668593 0.609266 0.501452 0.344324 0.793717 -0.205374 0.978677 -0.00357517 0.49464 -0.856316 0.148508 -0.967304 -0.0119903 0.253336 0.23736 0.818061 -0.523866 0.860832 0.446203 -0.244685 -0.33063 -0.940717 -0.0757307 -0.770752 -0.120532 0.625631 0.540003 -0.401889 -0.739514 -0.489895 -0.467685 0.735713 0.61455 0.391658 -0.684786 0.944187 0.18371 0.273425 0.25419 -0.139513 0.957039 0.578817 0.0798831 -0.811536 0.508691 0.850721 -0.132311 0.129627 -0.939261 -0.317783 -0.692423 -0.649739 -0.313671 -0.2573 0.897782 -0.357468 0.852454 0.404884 0.330744 0.886408 -0.332946 0.321603 0.550916 0.424072 -0.718787 -0.73042 0.682797 -0.0165472 0.214757 -0.778173 -0.590191 -0.630764 -0.498014 -0.595079 -0.453142 -0.891438 4.77408e-05 0.680946 0.428931 -0.593574 0.0216085 -0.901906 -0.431392 -0.199444 0.401585 -0.893841 0.199936 -0.611821 0.76531 -0.947918 -0.30651 -0.0866186 0.715174 0.366547 0.595121 0.750269 0.471188 -0.463765 -0.505791 0.0680757 -0.859966 0.17962 0.866986 -0.464835 0.879052 0.152407 -0.451706 0.699432 -0.714579 0.0131286 0.809833 0.406876 0.422638 -0.414809 -0.515802 0.749588 -0.775424 0.377772 -0.505971 0.248254 0.274701 -0.928929 0.926272 0.0428819 -0.374408 -0.436411 -0.871607 0.223264 -0.13319 -0.982223 -0.132281 -0.169865 0.330404 -0.928428 -0.167232 -0.757623 0.630905 -0.908377 -0.335639 0.249396 -0.872453 0.376868 -0.311122 -0.258718 -0.655191 -0.709782 0.0147514 -0.650852 0.759061 -0.447971 0.112882 0.886893 0.411299 -0.857704 0.308506 0.651894 -0.0833344 -0.753717 0.077252 -0.861832 -0.501276 -0.574642 -0.778499 0.25244 -0.423732 0.905526 -0.0217624 -0.653107 -0.172843 0.737277 0.236555 0.968026 0.0834716 0.706991 0.186782 0.682111 0.184248 -0.664676 0.724057 -0.522742 -0.851458 0.0419458 0.142172 -0.969038 -0.201875 0.965732 0.104315 -0.237656 0.918507 -0.39487 -0.0205605 0.484036 0.816177 0.31554 0.124993 -0.250415 0.960036 0.78568 0.150433 -0.600064 0.567298 -0.501094 0.653512 0.179683 0.369874 -0.911541 -0.525804 0.174347 0.832547 0.696514 0.47 0.542189 -0.212472 -0.296566 0.931077 -0.928956 0.369087 0.0285536 0.980671 -0.0284029 -0.193593 0.0598381 0.767153 0.638667 0.0680298 0.935377 -0.347047 -0.34452 -0.938745 -0.00797292 0.00819178 0.168225 -0.985715 -0.0869521 0.153213 0.98436 -0.139463 -0.463459 -0.875075 -0.948568 -0.316428 -0.00955884 -0.0673296 -0.134938 -0.988564 -0.419763 0.888021 -0.187664 -0.0122942 0.706192 0.707913 0.919366 -0.376954 -0.11257 0.28578 -0.182156 0.940824 -0.31155 0.64001 -0.70237 -0.840383 -0.487993 -0.235837 0.869883 0.209981 -0.446332 0.136724 -0.00846599 0.990573 -0.246266 0.822273 0.51305 0.26196 -0.162993 0.951215 0.262431 -0.710076 0.653393 0.63116 0.101834 -0.768939 -0.320401 0.685512 -0.653771 -0.697457 -0.570447 -0.433755 0.954686 0.166748 0.246517 0.251915 -0.119488 -0.960344 -0.268274 -0.302442 0.914635 0.25844 -0.104489 0.96036 0.38498 -0.361739 -0.849079 0.126674 -0.991939 -0.00327956 0.860881 0.114324 -0.495796 0.551598 0.734015 0.396183 0.747836 -0.307606 -0.588319 0.860404 0.509121 -0.0223807 0.112568 0.816726 0.565938 0.712478 -0.604698 -0.355971 -0.936043 -0.255477 0.241983 0.0935266 -0.975131 0.200926 -0.187254 0.236534 -0.953408 -0.949059 0.315073 -0.00404532 -0.715147 -0.64252 -0.275194 0.351891 0.477127 0.805309 0.0419959 -0.960588 0.274784 0.905157 0.284326 0.315991 -0.221317 0.975172 0.00766619 0.884811 0.225326 0.407846 0.347359 -0.560469 -0.751809 0.791586 0.581391 0.188082 0.583801 -0.432327 0.687218 0.722076 -0.353306 0.594795 -0.472428 -0.872522 -0.124568 -0.120252 0.181001 -0.976104 -0.632751 0.261882 0.728727 0.16949 -0.67802 0.715236 0.269555 -0.891186 0.364867 -0.612641 0.662286 0.431333 0.351268 -0.0405006 0.935398 -0.578816 -0.75479 0.308648 -0.707664 0.596923 -0.378013 -0.734695 0.127318 0.666343 0.867291 0.395205 -0.302686 -0.763417 0.59771 0.244821 -0.442485 0.856595 -0.265427 0.950524 0.303618 -0.0657253 -0.912873 0.24305 -0.328009 0.496983 0.562032 -0.661157 0.111902 0.986033 -0.123353 -0.187751 -0.425739 -0.885153 -0.61296 -0.565655 0.551647 -0.0163053 -0.891635 -0.452462 0.765501 -0.281048 -0.578809 0.256507 -0.79717 0.546556 0.781806 0.610586 -0.126347 0.962674 0.261287 -0.0706322 0.552134 0.39364 0.73498 0.78589 -0.541964 0.297744 0.236484 0.418696 -0.876795 -0.212125 -0.541315 -0.813622 0.910487 -0.167765 0.377979 -0.958425 -0.078179 0.274425 -0.726218 0.163478 -0.667744 0.232207 0.241657 -0.942169 -0.0744095 -0.985802 -0.150523 -0.755225 -0.655338 -0.0129344 0.182232 0.108372 0.977265 0.870924 -0.218113 0.440361 -0.76377 0.104627 0.636953 0.457458 0.368412 -0.809324 -0.0479846 0.951871 -0.30272 0.0977682 0.221658 -0.970211 0.145753 -0.730214 -0.667491 -0.880924 -0.395377 -0.260095 -0.759144 -0.0582542 -0.648311 -0.862938 -0.0644515 -0.501182 0.37234 0.226207 -0.900107 -0.664099 -0.381892 0.642753 0.593957 -0.750924 0.288665 0.264634 0.964016 -0.025329 0.869822 -0.0894518 0.485189 -0.48424 0.838911 0.248474 -0.244602 0.761682 0.600008 0.93135 0.227359 0.284421 -0.887296 0.33882 -0.312902 -0.471873 -0.308516 0.825926 0.346105 0.421138 -0.838364 -0.82247 -0.214084 -0.526983 0.8881 0.280829 -0.363887 -0.879846 0.418024 0.226113 -0.91243 0.14626 -0.382202 -0.36825 0.516109 0.77332 0.533277 -0.671208 -0.514874 0.858115 -0.343611 0.381538 0.996054 0.0246072 -0.0852663 -0.0452238 -0.957966 -0.283293 0.229968 -0.138944 -0.963228 0.331884 -0.0521937 -0.941875 0.0123493 -0.0924548 0.99564 -0.879129 0.445696 0.168783 0.38278 0.625631 0.679754 0.483217 0.793957 -0.368963 0.943232 -0.055035 0.327542 -0.288215 0.783034 0.551172 0.376997 -0.143231 -0.915073 0.188778 0.511434 -0.838331 -0.305057 0.578941 0.756153 -0.415659 0.873434 -0.253656 0.989305 -0.131639 -0.062816 -0.172429 -0.229074 -0.958015 0.91958 -0.0122703 -0.39271 0.617163 -0.762091 0.195773 -0.483139 0.875543 -0.000514724 -0.216773 -0.558025 -0.80101 0.0898218 -0.987631 0.128518 -0.302417 -0.749821 0.588483 -0.213646 -0.766803 -0.605283 0.113744 -0.926718 0.358129 -0.935911 -0.024288 -0.351397 0.865102 0.339509 -0.369233 -0.2619 0.417513 0.87011 0.453061 0.112436 -0.884361 0.197659 -0.963532 -0.180378 -0.785979 0.446924 -0.427196 0.360891 0.930364 -0.064656 0.964856 0.233842 0.119876 -0.703344 -0.152606 -0.694276 -0.894333 0.126282 -0.429211 0.104131 0.269555 -0.957338 -0.946043 0.241637 -0.215906 -0.987831 -0.046474 -0.148424 -0.940536 -0.337873 0.0351396 -0.366192 0.737185 0.567857 0.626667 0.761926 -0.163577 0.697856 0.277797 -0.660171 0.642019 -0.760019 0.10091 0.284198 -0.871228 -0.400242 -0.864614 -0.164045 0.474902 -0.568463 0.796151 0.207351 0.203242 -0.669085 0.714855 -0.457262 0.631196 0.626501 -0.824673 0.24358 -0.510474 0.81129 -0.235587 0.535076 -0.729442 -0.0590143 0.681492 -0.83748 0.25316 -0.484291 -0.763525 -0.123057 0.633945 -0.00577524 -0.028876 0.999566 -0.326807 -0.884561 -0.332789 0.805384 -0.59213 -0.0271686 -0.74204 0.160407 0.650881 -0.149903 -0.752426 -0.641392 0.26644 -0.948932 -0.168931 -0.134805 0.311638 -0.94059 0.932524 0.0877712 0.35028 0.415672 -0.169686 0.893545 -0.318641 0.840774 0.437683 -0.0881128 -0.792016 -0.604108 0.334117 -0.941337 0.0474345 -0.599009 -0.539668 0.591562 0.563763 0.812547 0.148115 0.131863 -0.58356 -0.801293 0.126694 0.364577 0.922514 -0.531231 0.768558 -0.356528 0.831728 0.461363 0.308825 0.329615 -0.776965 0.536358 -0.919419 -0.356779 -0.165463 -0.169846 0.788725 -0.590818 -0.743801 0.245783 0.621571 0.502624 0.716038 0.484416 0.784016 -0.619757 -0.0349431 0.245204 0.0646304 0.967315 -0.152678 -0.0917004 -0.984012 0.0912207 -0.826271 0.555838 -0.490067 0.595973 0.636122 -0.956946 0.264523 0.119504 0.00572196 0.517056 0.855932 -0.296755 -0.647679 0.701746 -0.885689 -0.217466 -0.410199 0.772758 -0.218465 0.595918 0.416339 -0.46632 0.780518 -0.432618 -0.864055 0.257392 -0.106095 0.782523 -0.613515 -0.175174 0.314044 0.933108 -0.174011 -0.980687 0.0892934 0.544843 0.804265 -0.237285 -0.957522 -0.082234 -0.276384 0.091215 -0.0694369 0.993407 0.793438 -0.450144 -0.409666 -0.337032 -0.333314 -0.880518 0.123734 -0.41487 0.901428 -0.567108 0.781151 0.261135 0.755651 -0.475029 -0.450932 0.418315 -0.176834 0.890922 -0.762649 -0.642512 0.0744635 0.299823 -0.427494 0.852851 0.9145 -0.403872 -0.0240302 0.577454 0.806338 -0.127926 0.553111 -0.419422 0.719829 0.712196 0.605157 -0.355755 -0.797066 -0.582132 -0.160651 -0.395846 0.393578 -0.8297 -0.076787 0.142394 0.986827 0.101488 -0.773091 0.626124 0.178275 -0.915484 -0.360703 -0.123341 -0.623302 -0.772192 0.0308296 0.958978 -0.2818 -0.123521 -0.0648717 -0.990219 0.298638 -0.567699 0.767159 0.86243 9.25731e-05 0.506177 0.895362 -0.11278 -0.430822 -0.859781 0.499342 -0.106932 -0.0292442 0.1643 0.985977 0.85094 0.0729185 0.520177 -0.298844 0.675231 -0.674355 -0.855571 -0.516681 0.0322364 0.669669 0.485249 0.562207 -0.367483 -0.0747691 -0.92702 0.605053 -0.281324 -0.744827 0.10357 -0.345247 0.932779 0.265595 -0.64723 0.714529 -0.557527 -0.829325 -0.037201 0.336655 0.822811 0.45787 0.377397 0.818968 -0.432276 -0.0517977 0.24841 0.967269 -0.799155 0.397761 0.450709 0.358198 -0.723099 -0.590612 -0.770127 -0.0761718 -0.633326 -0.631383 -0.739071 -0.234797 0.209966 0.702668 0.679832 -0.999527 0.0300766 -0.00643193 -0.611005 -0.39353 0.686882 0.0445388 0.706021 -0.706789 -0.892266 0.417173 -0.172709 -0.505559 -0.808974 0.299951 0.56306 0.63883 0.52427 0.653116 0.631141 0.41845 -0.589901 0.710257 -0.384125 -0.254433 0.965882 -0.0483227 -0.436652 0.361414 -0.823841 0.193216 0.979397 0.0587339 -0.715085 0.694913 -0.0758223 0.967487 0.157846 -0.197617 -0.581978 -0.545585 -0.603025 -0.480473 0.709181 0.515953 0.249547 0.731139 0.63495 -0.617693 0.571528 -0.540195 -0.0730863 -0.416521 -0.906184 0.0788411 -0.918889 -0.386558 -0.267882 0.845778 -0.461409 -0.846376 0.251104 -0.469675 -0.501195 -0.86134 0.0830474 0.380467 0.501629 -0.776925 -0.852656 0.0741518 0.517184 -0.111734 -0.506208 0.855143 0.740922 -0.58036 0.33796 0.847219 -0.345335 0.403688 -0.0687305 0.863011 0.500489 -0.85