# vtk DataFile Version 4.0
Generated by libgran
ASCII
DATASET POLYDATA
POINTS 1686 FLOAT
-32.9718 2.17237 6.53434 -31.5934 1.3152 7.57646 -33.8335 2.33604 4.9802 -32.6236 3.19142 5.98323 -33.877 -0.970578 7.845 -34.428 2.9455 3.99961 -30.9218 0.123113 12.239 -30.6194 -1.56426 12.6613 -31.5937 0.789241 11.3048 -31.7061 -0.267901 9.86544 -31.2719 1.41254 9.91524 -30.7729 1.59124 8.71618 -29.9319 -3.23369 15.0941 -29.1948 -2.79206 14.0794 -29.3137 -1.65336 14.1419 -28.793 -0.0289994 13.7365 -28.1376 0.254769 14.4365 -28.2507 0.886894 13.0637 -31.6451 -3.95893 13.2004 -33.4679 -4.83594 14.7448 -32.4963 -4.19265 14.1045 -32.5254 -4.62547 15.7987 -34.3027 -5.33013 13.8284 -31.7688 -4.95503 16.686 -32.1086 -3.67597 17.3066 -32.4028 -3.29303 18.412 -31.1116 -3.17726 18.6744 -30.5814 -4.65867 21.3484 -31.7667 -3.90102 21.9883 -31.0141 -3.79766 20.2988 -30.3171 -5.84837 21.8802 -31.1537 -7.44166 21.6777 -31.5078 -3.84053 23.651 -30.2533 -4.15559 18.9693 -30.4948 -8.14922 19.7194 -31.0938 -9.43941 19.5919 -29.1842 -8.34476 19.6089 -28.0796 -8.29446 19.5258 -27.7816 -6.90314 20.6444 -28.5546 -6.28615 22.0816 -27.6707 -5.43052 20.6355 -30.1995 -10.3483 20.6647 -21.8174 -12.4193 23.267 -22.7503 -12.0389 22.3993 -24.0375 -12.9436 22.4431 -21.3706 -11.4691 24.9579 -22.7439 -11.3775 25.4132 -25.4831 -13.8222 22.6826 -27.3292 -11.6851 19.8053 -26.3245 -11.272 18.9154 -26.8613 -12.745 20.4579 -28.3655 -12.4187 20.8052 -26.1146 -13.6235 21.5859 -29.2317 -11.3106 21.4688 -25.4203 -12.6753 18.1096 -25.427 -14.067 17.1375 -24.6085 -16.1546 18.0703 -24.3031 -16.198 16.7767 -25.4674 -15.3559 16.7803 -23.2634 -15.4829 18.9235 -22.4811 -15.8719 16.3221 -21.6906 -15.3034 19.3442 -21.7107 -16.3162 19.8514 -21.7851 -14.8381 12.3402 -22.84 -15.2717 12.1736 -23.0219 -13.6541 12.5902 -20.5131 -14.8837 12.7248 -20.4791 -15.887 11.4077 -20.3448 -14.3281 14.4965 -21.0797 -14.7822 15.8761 -36.5734 16.2912 3.60876 -37.1756 15.7667 1.79224 -37.1882 14.778 1.64266 -35.376 16.789 4.53761 -34.6583 16.6397 5.35415 -33.7158 16.9195 5.1714 -33.9367 16.4261 6.0127 -40.4028 15.3383 1.83552 -41.321 16.0746 1.21842 -39.4447 16.6231 1.18933 -39.5824 14.9556 2.48079 -40.6617 13.5826 2.11434 -41.3929 12.5833 2.65481 -42.0441 11.5279 3.47997 -46.3404 12.2273 3.62235 -46.6995 11.2707 3.04463 -47.1138 13.5202 2.84202 -45.5089 13.7849 4.55898 -42.9979 11.0486 3.56047 -42.2266 9.95498 2.66004 -42.7863 10.1729 1.47763 -42.6135 9.19373 0.913831 -42.279 8.47739 2.28426 -42.8483 11.6073 0.459777 -44.2186 10.6765 1.17556 -43.1637 11.9425 -0.797875 -42.4784 7.02314 1.9203 -42.5237 7.07361 3.53943 -44.8638 8.31921 -5.0226 -44.2181 7.99459 -6.13868 -45.1963 6.57412 -5.64647 -45.643 9.81428 -6.61732 -46.4746 9.25418 -6.9892 -46.4282 10.0988 -5.28995 -47.7372 8.87753 -7.43669 -47.2598 9.53869 -5.66183 -46.1392 5.10991 -5.16638 -45.6979 10.4799 -3.28182 -46.5861 10.4459 -4.28495 -45.5985 10.5078 -2.05899 -45.7767 10.3766 -0.956533 -46.3907 10.0952 -0.0624326 -45.4346 9.94417 0.385029 -47.4502 11.468 -0.155813 -45.5335 11.2857 1.48178 -44.1671 4.46343 -8.03613 -43.2015 4.55189 -9.44471 -43.4081 3.43203 -7.84099 -44.3531 5.72093 -7.64591 -44.7549 6.94521 -8.0253 -46.3538 6.90459 -7.62143 -43.7472 1.91292 -7.17292 -47.5256 6.46868 -7.91715 -45.8545 1.68854 -3.92975 -45.2247 2.85724 -4.19459 -46.397 3.54415 -4.38527 -44.0684 3.95287 -4.68201 -25.1408 13.6679 19.8655 -25.6881 14.4593 20.7832 -24.2874 14.9707 20.1979 -26.4187 12.7238 18.8884 -28.1237 12.7155 20.4157 -28.5193 10.3221 18.3404 -29.076 11.9928 17.7093 -29.0235 9.17051 18.0941 -28.279 8.43945 18.3901 -28.4223 12.1448 16.9679 -30.5116 8.42708 18.5155 -29.8942 9.28551 16.9152 -30.6556 7.85486 20.0962 -26.0849 4.8837 12.7039 -25.8584 3.79666 12.4591 -26.4397 5.9722 13.3801 -27.956 5.22721 13.2045 -27.2633 2.93337 13.1634 -27.0168 2.70319 11.6995 -27.6055 2.18052 14.4962 -26.6646 1.97207 10.5188 -26.3326 2.19362 9.52161 -29.0112 9.16073 15.6838 -30.2777 9.09705 15.2841 -27.9084 9.49815 14.896 -30.3513 7.72578 14.1463 -31.5245 9.08734 14.3214 -30.8501 6.48632 13.9542 -29.4542 6.06685 13.5664 -33.6768 7.29608 5.5759 -34.8646 6.86577 5.16124 -33.0099 8.14899 6.05179 -32.6022 6.51844 6.64824 -36.4724 6.44885 6.15337 -34.439 4.78109 6.91715 -37.6547 7.07595 5.92127 -37.7727 7.05906 4.41118 -40.9514 6.083 5.30034 -39.4416 5.4902 5.07329 -42.1698 6.58701 5.13703 -42.8896 5.96939 3.56376 -38.5079 6.78398 3.72955 -38.6695 4.77053 6.20829 -32.1887 6.29679 11.8016 -31.7505 8.7591 11.1397 -32.8771 8.83096 12.4781 -32.9394 9.01692 13.5678 -33.6267 7.90026 13.9362 -32.009 10.5603 13.8682 -33.9224 6.49841 14.4215 -34.5201 3.96317 9.47465 -33.9201 3.77699 10.6465 -33.833 4.23624 7.6311 -33.1492 3.98681 11.7927 -25.6871 23.0818 29.026 -26.0835 21.8186 29.5857 -25.6959 22.6885 30.6155 -25.4364 23.2053 27.726 -25.8557 24.687 28.2842 -26.6405 25.8559 28.3092 -22.891 23.3545 28.9434 -22.5781 23.6917 31.2432 -23.44 24.3386 32.388 -22.2954 23.4144 29.9739 -21.8474 23.0711 29.0175 -23.675 25.1983 29.4294 -23.419 24.5283 33.6104 -25.4768 27.4552 33.6634 -25.1566 28.4568 34.4801 -26.181 29.2698 33.7073 -25.7919 26.7726 32.8486 -24.8202 26.0841 32.6114 -23.6144 29.0775 35.5286 -25.5231 25.1727 31.9776 -20.9272 26.0162 36.0728 -21.0118 24.7475 36.4619 -20.8292 27.1013 35.9095 -19.8717 27.8631 36.6909 -20.8902 28.6018 36.0854 -18.3825 27.6795 37.5602 -18.5106 28.8464 36.9885 -21.8857 29.4919 35.7492 -19.933 29.6168 35.4688 -27.7691 23.6609 33.7939 -28.2943 25.9053 34.0871 -30.3478 24.8516 36.1976 -30.1975 23.6996 35.3774 -29.7733 22.9858 33.6661 -26.4575 23.4359 33.6998 -31.4523 20.6462 31.8168 -32.075 21.5315 33.2424 -30.1865 20.4396 31.4615 -29.3189 20.1334 31.0698 -32.2122 22.6102 34.4695 -33.0962 22.1636 34.3313 -34.8861 22.6022 34.1215 -35.6296 22.4509 32.8238 -35.2129 21.5707 32.3892 -36.6391 23.7811 31.9628 -37.1297 23.6477 33.6073 -37.591 24.2965 32.5797 -36.2893 21.7255 34.1991 -37.2061 24.7149 35.1538 -37.3856 25.6548 33.2119 -41.1412 25.3052 36.4572 -40.5844 26.3894 35.9257 -39.6197 25.6076 35.4805 -38.2195 25.5808 35.2017 -41.0899 25.5168 34.2667 -37.1027 25.7917 34.8319 -33.9607 7.08026 23.5755 -33.7559 5.91416 24.1797 -35.2689 6.87489 24.5779 -32.7857 7.29992 22.4393 -34.045 8.38874 22.922 -31.3782 6.37098 21.6428 -30.4824 5.97242 20.5713 -31.0481 5.30817 19.8309 -29.4836 5.82401 19.5252 -31.6089 4.34431 19.1067 -31.2711 3.64842 20.3164 -27.6094 4.63833 18.3361 -27.4326 5.73719 18.1265 -38.7465 7.12701 24.362 -38.9757 6.18255 25.2694 -40.4428 5.68346 24.7766 -39.1174 8.45405 24.9441 -40.4817 8.06528 24.5559 -37.2848 5.28532 21.8826 -37.4846 6.68219 22.8761 -36.4578 4.895 22.5351 -35.6551 4.50305 22.9845 -34.2848 5.25194 21.9765 -34.5911 3.93532 23.1429 -29.5852 15.557 23.3527 -30.6175 15.4837 24.1875 -29.2958 15.2596 25.2048 -28.572 15.2242 22.5147 -29.5441 14.8087 21.6114 -31.6346 16.1966 24.5201 -31.1809 17.2384 25.8636 -30.111 17.9926 27.2911 -32.2495 9.69123 21.2505 -31.1041 9.6116 21.876 -30.7757 10.7921 20.9793 -33.3757 10.3881 21.3721 -33.9659 9.23369 22.11 -29.5364 11.1688 21.5598 -29.6051 12.1664 21.5636 -29.0168 19.3985 27.6447 -29.0152 17.8246 27.461 -29.8079 19.6123 29.8209 -31.2042 19.5604 28.7382 -28.6516 16.3236 27.695 -27.8887 15.2891 28.6015 -30.9373 19.6975 26.3696 -31.8965 19.1252 27.435 -30.8274 21.0224 26.3947 -32.3401 21.716 25.9405 -33.9582 21.5458 25.9789 -33.8274 22.7344 24.169 -6.40475 25.0681 41.2603 -5.44728 24.9497 41.5234 -7.69129 24.731 41.1772 -5.91629 24.233 41.0073 -8.49868 26.0285 42.0072 -9.35019 24.5942 41.451 -9.31787 25.6943 41.5411 -9.30772 26.6121 41.9381 -5.33163 23.2013 41.4347 -4.12649 23.7031 40.8991 -5.10097 21.4977 41.704 -10.1528 23.6622 40.3831 -6.80317 20.0197 42.9943 -6.62197 20.8222 41.6952 -7.85337 19.0551 43.2286 -8.49451 18.1914 43.5432 -4.76616 20.8881 42.7551 -1.50756 24.8276 42.1346 -2.45702 24.993 41.2184 -2.82475 23.8096 41.2428 -0.181858 26.1498 42.0019 -2.12336 26.54 40.662 -3.07945 22.5764 41.1928 -2.04648 28.3504 40.7519 0.92377 30.3504 41.3045 1.40404 29.1569 42.3272 -1.78613 29.9239 40.2099 2.44891 28.4958 41.7959 -2.89151 29.6025 41.4705 -21.3408 33.3309 42.6479 -20.0681 32.9657 42.5257 -21.5661 33.6429 44.3062 -22.5625 32.7057 42.9593 -19.0233 32.2833 45.2478 -19.6012 32.8804 46.6655 -18.2886 31.4531 43.9156 -15.8091 30.1962 42.4112 -16.708 30.2324 43.3902 -14.9623 28.7812 42.5468 -17.7809 30.2052 43.4804 -17.8141 29.2179 44.6044 -16.889 28.6074 44.2037 -13.8709 28.8225 43.4604 -14.7646 28.4797 44.0815 -17.8549 28.6373 46.0869 -12.1159 25.39 44.9226 -13.3708 25.8121 45.0667 -11.8369 25.711 44.0176 -11.1455 25.4375 44.6862 -13.7238 26.9372 45.9257 -14.3098 26.0614 46.8007 -14.2547 28.3713 45.4808 -10.9782 26.7401 43.6263 -15.7924 28.2698 44.7593 -10.3812 28.3914 41.2585 -9.84631 27.173 41.1252 -11.1433 28.2182 42.6049 -11.2175 29.2155 42.6039 -11.9444 28.5188 41.1041 -11.1641 28.719 43.4703 -20.3998 36.1792 39.537 -20.3672 36.7369 37.7148 -19.6631 36.925 40.3557 -19.7906 38.4695 39.9115 -19.5316 38.3961 40.8746 -20.1792 39.1002 40.5832 -20.3139 40.1257 39.8992 -20.0141 36.2072 36.8042 -21.0602 37.5337 36.889 -19.2676 39.7726 41.4119 -21.0836 42.7218 43.3772 -22.6456 42.0059 42.7294 -23.0068 42.7131 43.5825 -22.615 40.9701 41.5306 -24.0725 40.9879 42.5874 -21.0996 40.8274 40.5084 -19.4023 40.7981 40.7279 -23.529 44.7839 44.422 -22.4704 45.317 43.0521 -22.9623 44.7595 45.6246 -23.8451 43.5222 44.5893 -22.3211 45.19 41.801 -21.4003 46.3063 42.5026 -22.6984 42.7001 47.3099 -23.5822 42.2645 50.526 -23.1842 43.3641 49.8931 -24.4644 43.9793 50.3227 -22.1257 43.0979 48.7824 -20.8428 44.3025 48.4535 -25.5271 44.3842 49.9337 -16.7988 29.2094 39.971 -16.0066 28.736 39.0139 -16.1884 30.038 38.5306 -15.7735 27.2281 39.3656 -17.2264 30.0895 37.4322 -14.8986 26.987 40.753 -13.4434 27.8371 40.9162 -18.5485 29.7734 36.3285 -18.7544 30.6707 34.9543 -18.0333 29.9867 35.0645 -17.8353 30.8523 34.6047 -19.1677 32.016 36.4136 -18.839 31.6761 37.5618 -21.8001 30.6187 37.619 -22.2202 31.5555 36.3119 -22.6648 34.9068 41.3144 -24.1946 34.0688 41.4034 -21.8659 34.0051 40.7517 -22.097 33.6457 39.5437 
[...]
POINT_DATA 1686
FIELD FieldData 1
normals 3 1686 double
-0.50628 0.518258 -0.689267 0.872141 -0.338915 0.352855 -0.35535 -0.354588 -0.864866 0.854471 0.500789 0.138164 -0.862293 -0.463368 -0.204306 -0.239227 0.964043 -0.115723 -0.546299 0.836482 0.0430619 -0.243879 -0.850895 0.465297 -0.125646 -0.170355 -0.977339 0.0132247 -0.886787 -0.46199 0.447448 0.793656 -0.412189 0.0516021 -0.614958 -0.78687 -0.201187 -0.924943 0.322496 0.535929 -0.483313 -0.692234 0.417008 0.65539 -0.629737 0.103744 0.968966 0.224371 -0.551563 0.685198 -0.475692 0.438516 -0.0530724 -0.897155 -0.874746 0.451444 0.176116 -0.995268 0.0418655 -0.0876819 -0.0235862 0.685158 -0.728012 -0.0527684 0.25234 0.966199 0.160524 -0.536056 -0.82878 0.809422 -0.581907 -0.0788674 0.469646 0.697155 0.541671 -0.763845 -0.314217 0.563746 0.527326 -0.198442 0.826165 0.862577 -0.439055 0.25138 -0.322714 0.318596 0.891264 0.429867 0.421958 -0.798227 -0.598257 -0.750646 0.280392 -0.2383 -0.842647 -0.482866 0.581639 -0.258113 0.771411 0.330976 -0.779894 -0.531244 0.774046 0.381096 0.505587 0.175067 -0.909099 0.378009 0.536492 -0.576633 -0.616174 0.568104 0.626929 0.53312 -0.270079 0.764388 0.585465 -0.502874 -0.147399 0.851699 0.380947 0.708231 -0.594381 0.719157 0.00016871 0.694847 -0.319794 0.905852 -0.277786 -0.613081 -0.525426 -0.589965 -0.674103 -0.379328 0.633795 0.817109 0.575025 0.0409896 -0.556137 0.666604 0.496337 -0.771558 -0.499215 -0.394313 -0.418803 -0.879255 0.226967 0.585846 -0.466174 -0.662922 0.886704 -0.180634 0.425591 -0.617577 0.145681 0.772901 -0.140072 -0.697869 0.702395 -0.248632 0.962416 -0.109258 0.31839 -0.937132 -0.142871 -0.325086 -0.45456 -0.829273 0.574202 0.0356782 0.817936 0.879578 -0.00780687 -0.47569 -0.28469 0.834322 -0.472079 0.770883 0.636001 0.0352469 0.942369 0.333911 0.0210617 0.801892 -0.456475 0.385485 0.821951 0.556407 -0.121691 0.827715 -0.299548 -0.474509 -0.227168 -0.733057 -0.64111 -0.409076 0.884448 -0.224519 0.444289 0.253944 0.859139 0.478324 -0.749332 -0.457939 -0.275945 0.301676 0.912604 -0.459028 -0.755786 0.466992 0.258887 0.153693 0.953602 -0.343318 -0.370812 -0.862921 -0.33077 0.617841 -0.713347 0.938601 0.344115 -0.0247561 -0.220918 -0.493369 0.841298 0.721591 -0.213583 0.65855 0.942508 0.279787 -0.182749 -0.0774205 -0.816905 0.571553 -0.9957 -0.0806705 -0.0455489 0.880638 0.467873 -0.0746404 0.897781 0.43423 0.0737114 -0.181551 -0.938799 -0.292738 -0.549633 -0.060536 0.83321 -0.101514 -0.994802 -0.00804888 -0.50285 0.860674 0.0798843 -0.861946 -0.0959315 -0.497841 -0.27058 0.432214 -0.86022 -0.471444 0.881732 0.0169862 0.852297 -0.515508 -0.0885481 0.081075 0.578159 0.811886 -0.478537 0.796062 -0.370524 -0.30582 -0.183092 -0.934319 0.0287465 -0.899435 0.436109 0.416492 0.638361 -0.647325 -0.953816 -0.292488 0.0684562 -0.731854 -0.303136 -0.610327 -0.228205 -0.554817 -0.800063 -0.273447 -0.504344 0.819063 -0.138462 0.878999 0.456277 0.507271 0.554382 -0.659801 -0.470958 -0.866091 -0.167586 -0.0965755 0.684535 0.722555 -0.928193 0.124431 0.350678 -0.688606 -0.400023 0.604817 -0.334419 -0.501085 -0.798172 0.143014 0.16008 0.976689 -0.47198 -0.598124 0.647675 0.357612 -0.713146 0.60294 -0.530658 -0.747162 -0.400189 -0.258249 0.740979 0.619885 0.0800163 -0.872192 0.482575 -0.693948 0.590833 0.411525 0.262147 0.439797 0.858986 -0.36558 0.781934 -0.504906 -0.361083 0.901714 0.237762 -0.690003 0.417524 0.591244 0.275581 0.505982 -0.817336 0.0690072 -0.61388 0.786378 0.504023 0.839969 -0.201029 -0.905809 0.384314 -0.178361 -0.693137 -0.424929 0.582234 -0.408126 -0.905228 -0.1183 -0.478619 -0.0109831 -0.877954 -0.328243 0.887987 -0.32208 0.958082 0.280716 0.0572409 -0.214217 0.967629 -0.133435 0.198159 0.814914 -0.544655 -0.400842 -0.517958 -0.755675 -0.948137 0.273498 0.16197 0.452496 0.784888 -0.423319 -0.877135 -0.426153 -0.221423 -0.786628 -0.145525 -0.600033 0.431434 -0.902137 0.0036835 -0.125255 0.768585 -0.627366 -0.935586 -0.249436 -0.249921 -0.191101 -0.980489 0.0460569 -0.778975 0.616604 0.114005 -0.552543 -0.493992 0.671318 0.0649306 0.364443 -0.928959 0.408614 -0.0782221 0.909349 -0.895084 0.34442 0.283196 -0.668601 -0.742626 0.0384544 0.540243 0.744078 0.393046 -0.976073 -0.000913549 0.217442 -0.736336 -0.120661 0.66577 -0.489819 -0.350843 -0.798115 0.394186 -0.632194 0.667044 0.84203 -0.380281 -0.382585 -0.510002 0.601832 -0.61457 0.818019 -0.48923 -0.302489 -0.448523 -0.552906 -0.702227 0.284755 0.826651 -0.485348 0.374965 -0.818369 -0.435516 -0.798185 0.543194 -0.260463 -0.873738 -0.421091 0.243442 0.52212 -0.840555 -0.144423 0.439836 -0.0248762 0.897733 -0.747964 -0.455183 0.483072 0.227029 0.877784 -0.421845 0.634715 -0.752762 0.174604 -0.859883 0.0382548 0.509055 0.935905 -0.292839 -0.195773 -0.322423 0.588848 -0.741148 0.204468 -0.605732 -0.768948 -0.590994 0.521745 0.615231 0.91884 -0.0710565 0.38818 -0.627348 -0.0177398 -0.778537 -0.0924543 -0.59988 -0.794731 0.939705 -0.330648 -0.0873259 -0.14678 -0.648617 0.746828 0.424134 -0.773319 0.471262 -0.447553 0.499523 0.741736 -0.679022 -0.427659 0.596689 0.616743 0.613616 0.493056 -0.0705414 -0.503044 0.861377 0.313608 0.929802 -0.192662 -0.225232 -0.898805 -0.376058 0.357087 0.0210492 -0.933834 0.957117 -0.165134 0.238031 0.329999 0.252016 -0.909719 -0.186173 0.374956 0.908156 -0.36284 0.625631 -0.690603 -0.759186 -0.637574 -0.130905 -0.371577 0.232381 0.898849 0.613604 -0.502145 -0.609377 0.194245 0.979619 -0.051151 -0.978967 0.189298 0.0760899 0.72294 0.650289 0.233414 0.155388 -0.867608 -0.472345 -0.706505 -0.220631 0.672438 0.12731 0.590377 -0.797024 0.320724 -0.933669 -0.15937 -0.299774 -0.528321 -0.794363 0.727498 0.410254 0.549944 0.465395 -0.858641 -0.214811 0.785625 0.142969 0.601958 -0.238799 0.955918 -0.170867 -0.780422 0.176066 -0.599952 0.191249 -0.512469 -0.837138 0.756581 0.477736 0.446489 -0.894181 -0.398902 0.203269 0.135695 0.411349 -0.901321 0.051049 -0.857357 -0.512184 -0.0377075 0.673776 0.737973 0.995166 0.0880665 0.0434626 -0.0233726 0.826769 -0.562055 0.494083 -0.271704 0.825868 0.365961 0.895245 0.254183 -0.972094 0.0633312 0.225882 0.98061 0.188221 -0.0545593 0.542848 -0.512214 -0.665547 0.858187 -0.154281 -0.489604 0.154592 -0.974298 0.163841 -0.00429202 -0.177644 -0.984085 0.428501 -0.536207 -0.727234 0.768788 0.287227 0.571372 0.447686 -0.774297 -0.44726 -0.174972 0.110915 0.978306 0.818116 0.567651 0.0919721 0.0495004 -0.873838 -0.483691 0.0377454 0.967809 0.24884 -0.846237 0.521213 0.110544 -0.943697 -0.0826351 -0.320325 -0.200217 0.0686329 0.977345 0.216419 -0.811562 0.542706 -0.592623 -0.414932 0.690383 0.102091 0.28157 0.954094 -0.359252 0.930344 -0.0734682 -0.459501 -0.794033 0.397958 -0.178487 0.785646 0.59237 0.564679 0.427965 0.70568 -0.956258 -0.249009 0.153511 -0.399455 0.835186 -0.378021 0.565215 0.0534141 -0.823213 0.834964 -0.0802346 0.544423 -0.359299 -0.798826 0.482474 0.281824 0.291096 -0.914242 0.632687 0.652962 -0.416351 0.837507 -0.513134 0.187819 -0.67547 0.44759 0.586007 0.542331 -0.433305 -0.719808 -0.716979 0.655518 -0.237145 0.865139 -0.495632 -0.0767064 0.0306935 0.097069 -0.994804 -0.596392 -0.761313 0.254399 0.968046 -0.245477 -0.0512748 0.0355856 -0.202545 -0.978626 0.373394 -0.898435 0.231065 -0.419007 0.507429 -0.75296 0.595796 0.591428 0.54336 0.419196 -0.183413 0.889176 -0.648443 -0.761044 0.0182522 -0.818651 0.261952 -0.51107 -0.824746 -0.339446 0.452294 -0.539598 -0.0493216 -0.840477 0.9369 0.349412 -0.011385 0.403106 -0.223371 0.887474 -0.109958 -0.739734 0.663855 0.912735 0.347782 -0.214387 0.457505 0.401102 -0.793603 0.151201 -0.915513 0.372793 0.0577113 -0.0829455 -0.994882 -0.97466 -0.156278 -0.160049 0.347096 -0.380335 0.857246 0.955474 -0.249896 0.156913 -0.0166243 -0.665334 -0.746361 -0.0424443 0.869206 0.492626 0.496179 0.172572 0.850897 0.573722 0.581678 0.576623 -0.920368 -0.26811 0.284676 0.225072 -0.34774 0.910175 0.553441 0.832779 0.0135071 -0.205752 0.964933 -0.163006 -0.796025 -0.189433 0.574856 0.685875 -0.456125 0.567032 0.617213 0.541508 0.570804 0.520493 0.824213 -0.223069 0.522065 -0.749694 -0.406702 0.538567 -0.352689 0.765217 -0.857656 -0.404531 -0.317459 -0.158474 -0.751329 0.640617 0.921448 -0.283187 0.265968 0.793816 0.602918 -0.0796651 -0.165339 0.0306455 0.98576 -0.683921 0.721995 0.104759 -0.828739 -0.0284259 -0.558913 -0.789404 -0.141748 0.597285 -0.429473 -0.785767 -0.44511 -0.46901 -0.71672 -0.516083 0.488467 -0.835104 -0.252983 -0.81753 0.379666 0.43301 0.957478 -0.118385 0.263099 0.0101484 0.917771 0.39698 -0.84136 -0.516491 -0.159216 -0.809048 0.583659 -0.0691592 -0.819197 -0.334112 -0.466139 -0.372825 -0.913243 0.164281 0.832321 -0.411486 -0.371377 0.603485 -0.790428 0.105017 0.0387213 -0.415524 -0.908758 -0.0538504 -0.946635 0.317778 0.127347 -0.144108 -0.981334 -0.996351 -0.0179078 -0.0834544 0.355217 -0.8458 0.398049 -0.268673 0.180904 0.946091 0.847768 0.500074 0.17668 -0.101688 0.665502 -0.739437 -0.469419 -0.517958 -0.715098 0.477936 0.822107 -0.309384 0.435345 0.881469 0.182996 0.214717 -0.715187 0.665135 -0.358461 0.928892 -0.0930826 -0.180262 0.242131 -0.953351 0.300006 -0.951407 0.0694392 -0.618812 -0.644643 0.448895 0.744861 0.290331 -0.600741 -0.48657 0.32328 0.811628 -0.615625 0.0115957 0.787954 0.657075 -0.353573 0.665762 0.39029 0.300492 0.870275 -0.606128 -0.636801 -0.476543 0.818801 -0.283379 -0.499261 0.240906 0.31377 0.91843 -0.0841345 -0.546855 -0.832989 0.417857 -0.764413 -0.490987 -0.481075 -0.72827 0.488047 0.428939 -0.650651 0.626629 -0.591835 0.701044 -0.397829 -0.625085 -0.28623 0.726183 0.30007 -0.896698 0.325409 0.662389 0.692014 0.28698 -0.231295 0.349171 0.908065 0.584301 -0.294303 0.756292 0.691453 -0.273528 0.668637 -0.563355 0.148558 0.81275 0.970496 0.0474982 -0.236392 0.279043 0.321026 -0.905029 0.210285 0.976545 0.0462583 -0.375697 0.100725 0.921253 -0.741183 0.457555 -0.491213 -0.111775 0.981582 -0.15493 -0.796506 -0.559073 -0.23025 -0.815512 0.323331 0.479997 -0.280609 -0.895021 0.346693 0.0533847 -0.4965 0.866393 -0.020771 0.500746 0.865345 -0.747697 -0.195904 -0.634485 -0.0741556 0.997246 -0.00104731 0.216715 -0.0945746 0.971643 0.249307 0.463064 -0.85054 0.520022 0.840355 -0.152909 -0.647592 0.704081 -0.291366 -0.388561 0.630731 0.671714 0.259031 -0.0733493 0.96308 0.124352 0.952178 0.279094 0.103746 -0.992784 -0.0601321 -0.942324 0.333791 0.0246877 0.65251 0.74577 -0.134378 0.98729 0.0731284 0.141103 -0.574658 -0.642747 -0.506601 -0.935844 0.0644608 0.346468 0.605244 -0.393109 -0.692203 -0.852215 -0.375241 0.364588 0.910121 0.250463 -0.330074 0.78719 -0.279755 0.549608 -0.218534 -0.517047 0.82759 0.840037 0.0160796 -0.542291 0.785273 0.492677 0.374987 -0.0975305 -0.744632 -0.660311 -0.690715 -0.143096 -0.708827 0.230107 0.973138 -0.00727226 0.727397 -0.170848 0.664609 0.505736 -0.797101 0.32994 0.903735 0.302509 -0.302906 -0.376437 0.917738 0.126694 0.154747 -0.56867 -0.807878 -0.463493 0.0691902 -0.883395 -0.686252 -0.512861 -0.515782 0.730241 0.429337 -0.531429 0.0619598 -0.902731 -0.425721 -0.119809 0.399276 -0.908969 0.171135 -0.605229 0.777439 -0.918221 -0.347805 -0.189476 0.703815 0.3642 0.60992 0.751308 0.485834 -0.446656 -0.403889 0.0316778 -0.914259 0.198006 0.865615 -0.459897 0.919107 0.181612 -0.349655 0.721101 -0.684003 0.110241 0.806125 0.277214 0.522796 -0.477409 -0.617201 0.625415 -0.728229 0.511518 -0.456105 0.308154 0.425304 -0.850974 0.982018 0.00737032 -0.188644 -0.547752 -0.830682 -0.0996732 -0.183129 -0.909136 -0.37408 -0.0479056 0.549801 -0.833921 -0.365699 -0.855285 0.367085 -0.969372 -0.244678 -0.0212095 -0.799649 0.533376 -0.275809 -0.271885 -0.47095 -0.839217 -0.079843 -0.790093 0.607764 -0.519087 -0.0415713 0.85371 0.345674 -0.925226 0.156415 0.681503 0.0152054 -0.731657 0.0513201 -0.757072 -0.651313 -0.630183 -0.772279 0.0803436 -0.540148 0.841349 -0.0193117 -0.637577 -0.26892 0.721926 0.101166 0.988169 0.115272 0.652415 0.294644 0.698241 0.265251 -0.626722 0.732708 -0.387163 -0.921367 0.0344679 0.140086 -0.973995 -0.178071 0.945283 0.242033 -0.218769 0.955838 -0.269528 0.117167 0.356296 0.915369 0.187493 0.0650897 -0.0556352 0.996327 0.811374 0.126453 -0.570685 0.563285 -0.282333 0.776529 0.18155 0.235498 -0.954767 -0.589909 0.235827 0.772265 0.586073 0.656206 0.475303 -0.229403 -0.438948 0.868734 -0.934412 0.35071 0.0622641 0.984813 0.00823843 -0.17342 0.0327932 0.654055 0.755736 0.0639289 0.979857 -0.189189 -0.337781 -0.924521 -0.176534 0.0311358 0.325804 -0.944925 -0.114282 -0.00915681 0.993406 -0.110513 -0.316827 -0.942023 -0.930301 -0.349273 -0.11202 -0.022036 0.046825 -0.99866 -0.451291 0.888399 -0.0841658 -0.0755659 0.59928 0.796965 0.938493 -0.31334 -0.145085 0.278941 -0.294766 0.91395 -0.228442 0.612552 -0.7567 -0.875273 -0.424568 -0.231601 0.898839 0.095577 -0.427731 0.105511 0.0519036 0.993063 -0.154564 0.883846 0.441505 0.216715 -0.115979 0.969321 0.169808 -0.695584 0.698088 0.644487 -0.021593 -0.76431 -0.280042 0.649775 -0.706661 -0.766007 -0.53659 -0.353984 0.9718 0.105386 0.210946 0.200375 -0.234326 -0.951284 -0.259066 -0.186294 0.947723 0.276706 -0.0503319 0.959636 0.409003 -0.230697 -0.88289 0.242172 -0.965018 -0.100462 0.862307 0.219351 -0.456412 0.505017 0.704429 0.498735 0.771146 -0.190844 -0.607381 0.835236 0.545954 0.0656877 0.0640897 0.736798 0.673068 0.746332 -0.517963 -0.417974 -0.938439 -0.284217 0.196348 0.100245 -0.987727 0.119778 -0.135402 0.181972 -0.973937 -0.958867 0.272745 -0.0786392 -0.76407 -0.59245 -0.255342 0.293243 0.408483 0.864379 0.0440848 -0.980542 0.191293 0.858515 0.394442 0.32767 -0.273413 0.945076 -0.179097 0.83311 0.359802 0.420084 0.43723 -0.695114 -0.570655 0.745306 0.655407 0.122316 0.544785 -0.267404 0.794798 0.602527 -0.152149 0.783462 -0.465528 -0.883626 0.049894 0.0507121 -0.105963 -0.993076 -0.747526 0.426039 0.509604 0.0336384 -0.452181 0.891292 0.187419 -0.749851 0.634505 -0.666473 0.736377 0.11646 0.184007 0.234829 0.954462 -0.611759 -0.678666 0.406403 -0.640472 0.427566 -0.637953 -0.836295 0.285084 0.468336 0.899844 0.356273 -0.251695 -0.804454 0.591741 -0.0519317 -0.443734 0.652659 -0.614114 0.748834 0.588858 0.304128 -0.653874 -0.0922506 -0.750959 0.598166 0.650983 -0.467352 0.084607 0.916934 -0.389967 -0.0500411 -0.656897 -0.752318 -0.703473 -0.409861 0.580637 -0.151998 -0.865208 -0.477819 0.588772 -0.258355 -0.765898 0.151302 -0.610197 0.777668 0.74077 0.606853 -0.288079 0.920765 0.252795 -0.297129 0.435835 0.593836 0.676318 0.727918 -0.650489 0.216792 0.112167 0.271354 -0.955921 -0.420356 -0.536549 -0.731721 0.946227 -0.252759 0.201911 -0.856591 0.194766 0.477826 -0.805348 0.291535 -0.516161 0.0512434 0.0967694 -0.993987 -0.148469 -0.96636 -0.210015 -0.779623 -0.61647 0.110241 0.385026 0.0369525 0.922165 0.928039 -0.287619 0.236682 -0.608916 0.0997021 0.786944 0.303406 0.401002 -0.864374 -0.0243048 0.97523 -0.219854 -0.0945611 0.296071 -0.950474 -0.0702564 -0.67916 -0.73062 -0.93763 -0.335488 -0.0910938 -0.883552 0.0548618 -0.465108 -0.958404 -0.000986649 -0.285412 0.16 0.29495 -0.942021 -0.510387 -0.420998 0.749844 0.599494 -0.796984 0.0736487 0.308288 0.95124 -0.0100866 0.95844 -0.169771 0.229284 -0.360413 0.807913 0.466239 -0.275722 0.7537 0.596586 0.922748 0.303889 0.237039 -0.923845 0.263239 -0.277878 -0.473425 -0.322998 0.819476 0.279542 0.468201 -0.838238 -0.816359 -0.276917 -0.506828 0.847751 0.364202 -0.385583 -0.957855 0.258348 0.125582 -0.972031 -0.0691664 -0.224437 -0.333497 0.567138 0.753083 0.560612 -0.664026 -0.494756 0.956502 -0.132372 0.259963 0.949789 0.16072 -0.268458 0.175554 -0.981764 -0.0729413 0.0852063 -0.317524 -0.944414 0.187283 -0.173226 -0.966911 -0.0330302 0.07278 0.996801 -0.960423 0.270917 0.0647505 0.206987 0.791741 0.574719 0.334152 0.808599 -0.484263 0.915232 0.200976 0.349226 -0.475253 0.777101 0.412612 0.44603 -0.196807 -0.873112 0.120316 0.405446 -0.906166 -0.459305 0.608137 0.647463 -0.569217 0.719104 -0.3986 0.996749 0.07727 -0.0228245 -0.236536 -0.55831 -0.795198 0.871117 -0.0720918 -0.485755 0.721746 -0.59518 0.353332 -0.576705 0.783419 -0.231661 -0.250152 -0.823938 -0.508478 0.235609 -0.865114 0.442794 -0.149371 -0.523088 0.839087 -0.134098 -0.954302 -0.267069 0.210216 -0.709735 0.672373 -0.972082 -0.199558 -0.123426 0.741697 0.226038 -0.6315 -0.158662 0.691877 0.704367 0.283028 -0.220084 -0.933519 0.164555 -0.977812 0.129633 -0.852458 0.322463 -0.411502 0.313683 0.884701 -0.344829 0.962833 0.257182 -0.0825217 -0.684824 -0.448861 -0.574055 -0.906371 -0.125749 -0.403335 0.0737533 -0.187753 -0.979443 -0.962187 0.0709059 -0.262998 -0.970077 -0.234955 -0.0612188 -0.917655 -0.327545 0.224998 -0.401736 0.897724 0.180831 0.577004 0.628917 -0.521085 0.667072 -0.0252996 -0.744563 0.691075 -0.594794 0.410653 0.239286 -0.923247 -0.300593 -0.769382 -0.0881643 0.632675 -0.554152 0.815726 0.165852 0.340098 -0.538639 0.770844 -0.238892 0.741432 0.627064 -0.92321 0.240598 -0.29966 0.914729 -0.221857 0.337714 -0.491825 0.0970265 0.865271 -0.917814 0.309184 -0.249042 -0.544373 0.033564 0.838172 0.263189 0.121667 0.957042 -0.503503 -0.856668 -0.112266 0.691949 -0.696504 -0.189973 -0.466331 0.300448 0.832026 -0.4463 -0.746339 -0.493755 0.100784 -0.986874 -0.126186 -0.373419 0.28591 -0.882504 0.992757 0.048716 0.109817 0.601864 -0.235154 0.763192 -0.206081 0.801465 0.561413 -0.22699 -0.743355 -0.629205 0.303313 -0.949107 -0.0848388 -0.467105 -0.564076 0.680904 0.591946 0.801423 0.0855635 -0.00166018 -0.538604 -0.842557 0.340181 0.314249 0.886298 -0.568463 0.799018 -0.196012 0.895571 0.423558 0.1362 0.411294 -0.811261 0.415564 -0.943233 -0.331935 -0.0114209 -0.257398 0.83118 -0.492834 -0.588445 0.222097 0.777435 0.592366 0.711562 0.377865 0.759869 -0.616127 -0.207331 0.437294 0.0449523 0.898195 -0.35017 -0.0713751 -0.933963 0.206841 -0.833187 0.512851 -0.350395 0.579561 0.735753 -0.922837 0.205589 0.325737 0.181823 0.505365 0.843532 -0.11579 -0.656315 0.745549 -0.951615 -0.234367 -0.198751 0.892646 -0.20454 0.401679 0.59707 -0.492656 0.633086 -0.342958 -0.877602 0.334955 -0.2615 0.787049 -0.558723 0.278945 -0.800099 0.531066 -0.775901 -0.367895 -0.512475 0.885203 0.454578 0.0988668 -0.774465 0.25829 0.577486 0.21268 -0.971672 0.103058 0.169061 0.247329 -0.954069 -0.639131 0.74871 -0.175912 0.303315 -0.486461 0.819363 -0.229792 0.880749 0.414098 0.405425 -0.627915 -0.664344 0.581188 -0.38223 0.718415 -0.868996 -0.393423 0.300106 0.459086 -0.611242 0.644689 0.693215 -0.599235 -0.400463 0.729743 0.624131 -0.279169 0.64294 -0.643409 0.415515 0.65269 0.429331 -0.624236 -0.928376 -0.317561 0.19306 -0.560934 0.581186 -0.589556 0.373728 0.0383546 0.926745 0.108611 -0.840688 0.530516 -0.265118 -0.879042 -0.396229 -0.568821 -0.469625 -0.6752 0.177767 0.96753 -0.179679 -0.389964 0.12234 -0.912667 0.348753 -0.732014 0.585259 0.926872 -0.235935 0.291963 0.744241 -0.209576 -0.634179 -0.707742 0.6786 0.196477 0.329328 0.017709 0.944049 0.943999 -0.258436 0.205128 -0.300689 0.807704 -0.507149 -0.911215 -0.376304 0.167576 0.848581 0.284488 0.446067 -0.554693 0.117607 -0.823702 0.37999 -0.261311 -0.887313 0.21327 -0.497602 0.840778 0.129607 -0.514019 0.847931 -0.644461 -0.761984 0.0636362 0.397712 0.858767 0.323025 0.503864 0.672631 -0.541931 -0.0935702 0.441 0.892616 -0.780862 0.554629 0.287472 0.317712 -0.856445 -0.406891 -0.720946 -0.122345 -0.682106 -0.825316 -0.503446 -0.255724 0.278316 0.770381 0.573632 -0.949378 0.304245 0.0782077 -0.682371 -0.196977 0.703967 0.164148 0.57166 -0.803903 -0.816405 0.506784 -0.276864 -0.694895 -0.664482 0.274928 0.562792 0.681295 0.468083 0.831312 0.452305 0.323019 -0.51546 0.842617 -0.155877 -0.0763065 0.989835 0.120016 -0.523901 0.54419 -0.655274 0.376797 0.918533 0.119671 -0.576492 0.798681 0.172526 0.92433 0.032345 -0.38022 -0.773113 -0.367722 -0.516794 -0.240104 0.705296 0.667014 0.486288 0.564082 0.667335 -0.544727 0.756709 -0.361476 -0.275408 -0.249745 -0.92832 -0.00133394 -0.980285 -0.197586 -0.12685 0.760851 -0.636408 -0.770356 0.238479 -0.591336 -0.605675 -0.772207 0.191976 0.498031 0.293282 -0.816058 -0.880698 0.262475 0.394307 -0.247551 -0.306458 0.919131 0.633146 -0.568933 0.524825 0.769615 -0.339664 0.540668 -0.00191676 0.949431 0.31397 -0.812309 0.00218915 -0.5832