# vtk DataFile Version 4.0
Generated by libgran
ASCII
DATASET POLYDATA
POINTS 1686 FLOAT
-32.1597 1.24077 6.76614 -30.9918 0.675733 8.19362 -32.6869 1.09405 5.06759 -31.7497 2.18548 6.13146 -33.1111 0.532992 9.27327 -33.1353 1.4874 3.91401 -31.5693 0.0502937 12.9253 -31.6858 -1.58019 13.5923 -31.8695 0.696933 11.8029 -31.725 -0.502321 10.4827 -31.257 1.16949 10.4522 -30.4551 1.19317 9.41533 -31.8148 -2.90553 16.3081 -30.829 -2.76437 15.427 -30.7303 -1.62701 15.3204 -29.8559 -0.192917 14.8175 -29.222 0.101242 15.5329 -29.1358 0.533054 14.0826 -33.2187 -3.66541 14.241 -35.4535 -3.87498 15.4639 -34.268 -3.5791 14.9397 -34.6768 -3.63297 16.6392 -36.1975 -4.34732 14.4617 -34.1848 -3.91688 17.7097 -34.3054 -2.49423 18.0228 -34.5946 -1.99148 19.0805 -33.309 -1.99624 19.3914 -33.1818 -3.40896 22.1075 -34.0064 -2.30022 22.7998 -33.3463 -2.44123 21.0747 -33.3207 -4.68891 22.4399 -34.5681 -5.89582 21.9234 -33.6834 -2.36527 24.4511 -32.6241 -3.058 19.8207 -34.0295 -6.35206 19.8651 -34.9242 -7.37537 19.427 -32.818 -6.8743 19.6993 -31.7472 -7.15698 19.6439 -31.1341 -6.21128 21.0601 -31.8005 -5.68857 22.5853 -30.5673 -4.88682 21.3849 -34.3787 -8.7095 20.2632 -26.3961 -11.7343 22.3647 -27.2801 -11.1129 21.5899 -28.5926 -11.9504 21.3592 -25.9957 -11.2577 24.2553 -27.3841 -11.232 24.6715 -30.0711 -12.8057 21.3189 -31.7035 -9.93539 19.0529 -30.6143 -9.32646 18.4088 -31.2914 -11.1582 19.374 -32.8052 -10.9 19.7368 -30.6354 -12.3246 20.2744 -33.6102 -10.0138 20.7295 -29.6529 -10.4798 17.3218 -29.5988 -11.5486 16.004 -28.7984 -13.8107 16.3581 -28.3785 -13.4541 15.1477 -29.5801 -12.6784 15.2873 -27.5954 -13.3791 17.5222 -26.5345 -12.9946 15.0026 -26.0499 -13.2486 18.0488 -25.9749 -14.3775 18.1084 -25.6094 -10.7254 11.7417 -26.5995 -11.164 11.3471 -26.9844 -9.84223 12.3103 -24.3559 -10.7911 12.1804 -24.1565 -11.2233 10.5943 -24.3204 -10.8897 14.0419 -25.1361 -11.8177 15.1016 -36.1956 14.8958 2.78923 -36.0596 14.3392 0.889417 -35.898 13.3599 0.76794 -35.4665 15.5179 4.06434 -35.0645 15.4407 5.08244 -34.1593 15.8386 5.23198 -34.5961 15.3036 5.95523 -39.0126 13.445 -0.13932 -39.7751 14.071 -1.02969 -38.0953 14.8784 -0.439268 -38.4051 13.1556 0.745526 -39.0846 11.6598 0.0487455 -39.7465 10.5282 0.37539 -40.4301 9.34157 0.961232 -44.5236 9.61971 -0.437129 -44.4511 8.77477 -1.24869 -45.0783 10.9595 -1.31798 -44.3256 11.0777 0.915962 -41.2809 8.74578 0.702021 -40.1122 7.82332 0.0816593 -40.2163 8.09015 -1.21322 -39.7656 7.16739 -1.71501 -39.896 6.37649 -0.35097 -40.0241 9.57667 -2.13558 -41.4861 8.53001 -1.98168 -39.9077 9.9705 -3.41028 -39.8231 4.94266 -0.826275 -40.4615 4.87288 0.661587 -39.9338 6.55419 -8.19727 -38.9698 6.33231 -9.08573 -39.9358 4.82741 -8.94781 -40.3327 8.08019 -9.90053 -40.9733 7.48769 -10.5187 -41.4892 8.23804 -8.85323 -42.0177 7.0536 -11.3294 -42.1299 7.64555 -9.47139 -40.8541 3.2779 -8.80919 -41.4058 8.55486 -6.70751 -41.9591 8.51772 -7.92774 -41.6744 8.51813 -5.51067 -42.1893 8.30207 -4.53463 -43.0492 7.9223 -3.92488 -42.2963 7.79188 -3.18108 -44.1152 9.23728 -4.3126 -42.869 9.04179 -2.1218 -38.0823 2.92313 -10.9739 -36.7057 3.17967 -11.9555 -37.3786 1.8913 -10.6303 -38.481 4.14392 -10.6291 -38.85 5.35746 -11.0711 -40.4887 5.19053 -11.1623 -37.8733 0.314097 -10.2606 -41.4853 4.69608 -11.8048 -40.6802 -0.220432 -7.80743 -40.0573 0.976129 -7.92146 -41.214 1.64449 -8.2342 -38.8792 2.12249 -8.19112 -26.0013 12.9255 19.5928 -26.4317 13.9513 20.3211 -24.8578 13.9468 20.0232 -27.3039 12.3086 18.4088 -29.1671 12.9991 19.4764 -29.8949 10.6081 17.7812 -29.8101 12.1042 16.6615 -30.6377 9.57441 17.6374 -30.2301 8.80988 18.2898 -29.0137 11.8796 16.0998 -32.3272 9.28786 17.7285 -31.1367 9.58746 16.2547 -32.9939 9.15307 19.2725 -26.7186 4.32502 13.1789 -26.5325 3.20404 13.1386 -27.049 5.55598 13.5579 -28.5803 4.82134 13.5758 -27.9704 2.51703 13.9604 -27.7425 2.06398 12.5463 -28.3814 1.90122 15.3432 -27.4128 1.23658 11.4241 -27.1102 1.40994 10.4082 -29.9844 9.0649 15.4117 -31.0824 9.03485 14.6625 -28.6543 9.09409 14.9865 -30.9946 7.48618 13.7826 -32.1143 8.87098 13.4837 -31.494 6.23262 13.7492 -30.0675 5.74736 13.6816 -33.0738 6.36618 5.48171 -34.0059 5.84016 4.69264 -32.7299 7.2281 6.21479 -32.2206 5.60377 6.74659 -35.7366 5.07013 5.08632 -33.7929 3.73394 6.47614 -36.8809 5.46651 4.4711 -36.4959 5.50201 3.00648 -39.5339 3.92388 2.82363 -37.9464 3.63418 3.10398 -40.6752 4.29433 2.25343 -40.7162 3.7492 0.499609 -36.8937 5.13513 2.11881 -37.4393 2.99421 4.42139 -32.4128 5.70864 11.4689 -31.7218 7.98522 10.4482 -33.0996 8.31005 11.4787 -33.3586 8.68553 12.4876 -34.1527 7.65888 12.9003 -32.429 10.2447 12.694 -34.6249 6.37488 13.5457 -34.3549 3.17646 9.04348 -34.0022 3.12002 10.3243 -33.3191 3.31133 7.35399 -33.476 3.49237 11.5639 -26.1121 23.4271 28.0146 -26.6007 22.1617 28.49 -26.1579 22.9327 29.5749 -25.8456 23.617 26.7258 -26.1616 25.0853 27.3794 -26.861 26.3032 27.4814 -23.3033 23.504 27.9533 -22.9818 23.668 30.2707 -23.8035 24.2997 31.453 -22.7114 23.4542 28.9865 -22.283 23.1424 28.0105 -23.9568 25.364 28.5574 -23.7751 24.3998 32.6858 -25.6267 27.4732 32.9178 -25.2254 28.4157 33.7684 -26.218 29.3226 33.0613 -25.982 26.8649 32.0618 -25.0584 26.1264 31.7861 -23.6202 28.8941 34.7967 -25.8177 25.3059 31.0956 -21.093 25.7632 34.5013 -21.3267 24.461 34.6347 -20.9157 26.8495 34.5484 -19.8762 27.4108 35.3923 -20.8975 28.2865 35.0185 -18.3435 27.0117 36.0987 -18.4557 28.2723 35.7772 -21.8715 29.2565 34.9361 -19.9374 29.3731 34.5448 -28.1817 23.8487 32.8027 -28.5464 26.1 33.2374 -30.6926 25.0691 35.2653 -30.6195 23.9668 34.3697 -30.2303 23.3383 32.6171 -26.8885 23.5386 32.6968 -32.0579 21.2485 30.6172 -32.628 22.0888 32.0911 -30.8073 20.9703 30.2569 -29.9606 20.6243 29.8528 -32.6978 23.0977 33.3817 -33.6108 22.7273 33.2111 -35.3614 23.3094 33.0189 -36.101 23.3052 31.7103 -35.7424 22.4319 31.2144 -37.0073 24.7618 30.9442 -37.5217 24.5442 32.5723 -37.9269 25.2965 31.5928 -36.8229 22.5299 33.0259 -37.5387 25.4991 34.1922 -37.6336 26.5876 32.3234 -41.4362 26.2553 35.5143 -40.8026 27.3369 35.0706 -39.8879 26.528 34.5715 -38.4898 26.4281 34.2987 -41.3483 26.6297 33.3468 -37.3576 26.5864 33.9503 -37.0123 10.1174 21.7192 -37.3102 9.13329 22.5616 -38.5044 10.509 22.3342 -35.6088 9.73687 20.9412 -36.5486 11.1894 20.8349 -34.4229 8.30815 20.7659 -33.4643 7.45021 20.0918 -33.9892 6.76309 19.3422 -32.3183 6.84436 19.4335 -34.5655 5.75911 18.688 -34.7732 5.37945 20.0571 -30.5774 5.05936 19.0683 -30.0809 6.02685 18.7519 -41.5475 11.6042 21.0166 -42.2986 11.0039 21.935 -43.6672 10.8078 21.079 -41.6021 13.0821 21.2409 -42.8692 12.9881 20.5 -40.1798 8.89569 19.4451 -40.1616 10.4932 20.0985 -39.7235 8.46907 20.3788 -39.2373 7.99589 21.1135 -37.4872 8.06403 20.4917 -38.4982 7.23333 21.7064 -30.2205 16.2717 22.1314 -31.3589 16.3921 22.8079 -30.2455 16.0136 24.0117 -29.2134 15.6585 21.4611 -30.112 15.471 20.4166 -32.3072 17.2302 23.0352 -31.8329 18.1803 24.4383 -30.7793 18.7925 25.9438 -34.1365 11.483 19.4988 -33.2473 11.1147 20.3839 -32.3565 12.0184 19.55 -34.9712 12.4744 19.2006 -36.0466 11.7364 19.9248 -31.1846 12.0101 20.3509 -30.9213 12.9747 20.3413 -29.6118 20.1032 26.4106 -29.7048 18.5435 26.1467 -30.4723 20.2172 28.571 -31.8355 20.3125 27.45 -29.5165 16.9974 26.266 -28.9619 15.7969 27.1177 -31.4719 20.6004 25.1089 -32.4977 20.0037 26.096 -31.2902 21.9055 25.2869 -32.7841 22.6983 24.9474 -34.4035 22.5591 25.0314 -34.3161 23.9381 23.3635 -5.78783 24.1278 37.76 -4.79452 24.0736 37.862 -7.04079 23.6786 37.8232 -5.28123 23.38 37.3309 -7.80661 24.7843 38.9255 -8.6197 23.3489 38.3171 -8.66025 24.4287 38.5448 -8.65981 25.2901 39.0529 -4.55711 22.3675 37.5289 -3.49488 23.0442 36.8926 -4.14949 20.676 37.5592 -9.5205 22.4977 37.26 -5.32692 18.8891 38.8904 -5.46505 19.7996 37.659 -6.10495 17.6941 39.1244 -6.50243 16.6927 39.4331 -3.59241 20.0241 38.4828 -0.849727 24.3283 37.8529 -1.98987 24.4593 37.1814 -2.1679 23.2396 37.0506 0.204751 25.8766 37.7346 -2.01008 26.1079 36.872 -2.32709 22.0011 36.8813 -2.17249 27.867 37.2852 0.530366 30.2596 37.6017 1.39232 29.0344 38.278 -2.2669 29.5256 37.0069 2.36244 28.6507 37.4279 -3.00213 28.8236 38.3783 -20.5325 31.3347 42.27 -19.3316 30.861 41.9516 -20.6021 31.288 43.9703 -21.804 30.8027 42.5543 -18.0898 29.6324 44.3346 -18.4681 29.9649 45.8988 -17.5407 29.0231 42.8078 -15.2376 28.1917 40.8615 -16.0117 27.9969 41.9248 -14.3084 26.8389 40.651 -17.0628 27.8775 42.1269 -16.9081 26.7146 43.0559 -16.0081 26.249 42.454 -13.1178 26.8038 41.4312 -13.9105 26.2974 42.0771 -16.7396 25.8408 44.3767 -11.0911 23.2893 41.9921 -12.3146 23.6128 42.4069 -10.9673 23.7898 41.1352 -10.1723 23.4296 41.6232 -12.5772 24.5439 43.4989 -12.9662 23.4885 44.2806 -13.2296 25.9911 43.3702 -10.2029 24.9162 40.825 -14.8361 25.9023 42.8167 -9.96354 27.0233 38.7775 -9.36238 25.8872 38.4085 -10.5365 26.5546 40.1471 -10.6337 27.5282 40.3537 -11.536 27.1011 38.8482 -10.4544 26.8761 41.0904 -19.5201 34.6661 39.6775 -19.6445 35.6463 38.0478 -18.5391 35.0618 40.4839 -18.4172 36.6595 40.3068 -18.1116 36.3776 41.2163 -18.6405 37.219 41.1051 -18.6347 38.3559 40.6102 -19.5248 35.3147 36.9941 -20.2924 36.7127 37.5576 -17.5697 37.5765 41.939 -18.6204 40.1336 44.6015 -20.3414 39.918 43.9985 -20.4818 40.4267 45.0376 -20.6148 39.231 42.5969 -21.9646 39.2752 43.7875 -19.2393 39.0609 41.3966 -17.5639 38.7135 41.4441 -20.3709 42.0999 46.5649 -19.2024 42.7352 45.335 -19.8399 41.5229 47.6387 -21.0447 40.995 46.3534 -19.1186 42.8977 44.0819 -17.9345 43.5537 44.95 -20.1829 39.019 48.5161 -21.2117 37.8059 51.4664 -20.5017 38.8991 51.2039 -21.5571 39.66 51.9173 -19.5432 38.7357 49.9875 -17.9678 39.5807 49.9645 -22.4369 40.4625 51.7546 -16.5057 27.9085 38.5866 -15.8169 27.6492 37.4793 -15.9741 29.0325 37.3265 -15.5656 26.1041 37.4395 -17.0907 29.3616 36.3613 -14.4947 25.5555 38.58 -13.0238 26.3838 38.7104 -18.4945 29.3124 35.3158 -18.7483 30.4705 34.1624 -18.0532 29.7559 34.0841 -17.8466 30.6889 33.7894 -19.0081 31.5232 35.8823 -18.6274 30.9399 36.9104 -21.6163 30.0024 36.918 -22.0752 31.2334 35.8999 -21.7146 33.3113 41.4897 -23.3379 32.6737 41.5846 -21.1178 32.4675 40.6531 -21.5496 3
[...]
POINT_DATA 1686
FIELD FieldData 1
normals 3 1686 double
-0.374587 0.364289 -0.85263 0.793254 -0.200748 0.574846 -0.152599 -0.51101 -0.845921 0.784609 0.580419 0.217951 -0.349646 0.854236 0.384746 -0.295781 0.904357 -0.307657 -0.367303 0.915939 -0.161695 -0.483797 -0.714548 0.505334 0.067037 -0.2693 -0.96072 0.0775185 -0.929954 -0.359411 0.545492 0.74186 -0.389976 0.256463 -0.718184 -0.646868 -0.436362 -0.813335 0.384805 0.549382 -0.672173 -0.49635 0.648117 0.465184 -0.602949 0.226261 0.968911 0.100089 -0.407594 0.674752 -0.615286 0.493806 -0.24294 -0.834947 -0.794188 0.594964 -0.123625 -0.930528 0.212769 -0.298073 0.255059 0.508652 -0.822325 -0.153761 0.454778 0.877231 0.186617 -0.685107 -0.704133 0.645774 -0.738681 0.193199 0.525144 0.683971 0.506367 -0.814372 -0.181226 0.551322 0.471219 -0.185982 0.862185 0.673009 -0.708722 0.211594 -0.151536 0.400017 0.903893 0.508516 0.25901 -0.821173 -0.811846 -0.571233 0.120824 -0.435536 -0.635675 -0.637358 0.474516 -0.465065 0.747362 0.213694 -0.875782 -0.432829 0.822278 0.034433 0.568043 -0.0724243 -0.98888 0.129888 0.389221 -0.55667 -0.733912 0.681565 0.273987 0.678528 -0.0684398 0.671711 0.737645 -0.597937 -0.149002 0.787572 0.635229 0.652751 -0.412795 0.617981 -0.345253 0.706328 -0.282308 0.957996 -0.0504479 -0.601678 -0.336553 -0.724373 -0.710845 -0.500954 0.493704 0.830261 0.515003 0.213162 -0.55813 0.540708 0.629385 -0.767648 -0.354356 -0.533993 -0.447261 -0.891765 -0.0686542 0.641879 -0.282838 -0.712737 0.859369 -0.331014 0.389763 -0.654459 -0.0728224 0.752583 -0.203353 -0.835435 0.510584 -0.150508 0.959021 0.240055 0.319546 -0.870507 -0.374309 -0.265472 -0.198306 -0.943504 0.497438 -0.200716 0.84396 0.917269 0.155916 -0.366481 -0.284257 0.931521 -0.226862 0.705514 0.632299 0.320075 0.926731 0.303574 0.221386 0.839971 -0.501787 0.206538 0.764958 0.627102 0.146909 0.873975 -0.0217858 -0.485482 -0.116177 -0.460348 -0.880104 -0.501031 0.861431 0.083093 0.37953 -0.0438443 0.92414 0.578863 -0.476103 -0.662 -0.344067 -0.0547891 0.937345 -0.471659 -0.873248 0.122379 -0.109701 0.16441 0.980273 0.0263412 -0.392126 -0.919534 -0.135262 0.587204 -0.798057 0.838767 0.457753 0.294843 -0.436749 -0.534939 0.72325 0.46844 -0.137108 0.872792 0.905189 0.397832 0.14954 -0.139791 -0.843684 0.518321 -0.902326 -0.217688 -0.372049 0.777516 0.58973 0.218373 0.747311 0.554243 0.366525 0.0677333 -0.941458 -0.330255 -0.729593 -0.190202 0.6569 0.0459499 -0.996413 -0.0710575 -0.59651 0.801656 -0.039039 -0.524031 -0.0432896 -0.850598 0.041794 0.538148 -0.841813 -0.54765 0.832865 -0.0801002 0.896717 -0.400621 0.188154 -0.271994 0.521845 0.808515 -0.37609 0.788674 -0.486363 0.0746495 -0.134081 -0.988155 -0.0557855 -0.924985 0.375886 0.568251 0.697851 -0.435998 -0.89373 -0.348806 -0.2821 -0.451829 -0.304021 -0.838703 0.128644 -0.508845 -0.851192 -0.509758 -0.578617 0.636671 -0.331998 0.842449 0.424332 0.632048 0.620565 -0.464127 -0.333974 -0.884336 -0.326206 -0.356195 0.635528 0.685002 -0.996835 0.0430347 0.0668375 -0.800354 -0.477673 0.362302 -0.0474904 -0.477127 -0.877551 -0.15971 0.114821 0.980464 -0.58436 -0.665176 0.464827 0.222755 -0.720197 0.657036 -0.330526 -0.757344 -0.563189 -0.491414 0.683465 0.539804 -0.0234165 -0.899523 0.436245 -0.836511 0.519756 0.173502 -0.0835805 0.389329 0.917299 -0.229476 0.795218 -0.561221 -0.48913 0.860578 0.141979 -0.870028 0.338921 0.358027 0.506528 0.595455 -0.623589 -0.166287 -0.692918 0.701579 0.471317 0.881865 -0.0132372 -0.8403 0.331672 -0.428823 -0.798362 -0.4986 0.337662 -0.328478 -0.88428 -0.33189 -0.198242 0.00415249 -0.980144 -0.309378 0.896689 -0.316598 0.932226 0.299873 0.202562 -0.224475 0.968232 -0.110169 0.245918 0.846484 -0.472218 -0.395243 -0.465212 -0.792061 -0.825604 0.560636 -0.063753 0.748273 0.556147 -0.361646 -0.9074 -0.151646 -0.391956 -0.682189 0.0651912 -0.728264 0.137369 -0.937089 0.320926 0.222241 0.55907 -0.79878 -0.880174 -0.0965834 -0.46472 -0.472511 -0.861112 0.187667 -0.574096 0.783703 -0.237117 -0.809318 -0.189966 0.555803 0.381187 0.109632 -0.917975 0.142657 0.0551809 0.988233 -0.886853 0.422683 0.186629 -0.700704 -0.698295 0.146279 0.556488 0.808285 0.192345 -0.974862 0.0736399 0.210287 -0.737258 0.011287 0.675517 -0.509351 -0.441764 -0.738516 0.326327 -0.6271 0.707288 0.839092 -0.385633 -0.383683 -0.536529 0.558989 -0.632193 0.771171 -0.632192 0.0750233 -0.326872 -0.662245 -0.674231 0.558868 0.661383 -0.50024 0.414693 -0.886426 -0.205619 -0.705014 0.498375 -0.504557 -0.914099 -0.367129 0.172162 0.512356 -0.852385 0.104548 0.168757 -0.0907651 0.98147 -0.763251 -0.616791 0.1924 0.175217 0.952682 -0.248387 0.684516 -0.67165 0.283413 -0.967474 -0.153232 0.20128 0.970253 -0.240332 0.0291357 -0.176805 0.549611 -0.816498 0.561809 -0.514111 -0.648121 -0.845292 0.370512 0.384969 0.742167 0.0808135 0.665325 -0.296059 -6.12216e-05 -0.95517 0.255061 -0.545072 -0.798649 0.959654 -0.147231 0.239556 -0.235083 -0.720784 0.652079 0.263466 -0.699894 0.663878 -0.579548 0.633165 0.513055 -0.798254 -0.308341 0.517413 0.539257 0.683823 0.491517 -0.254896 -0.342821 0.904158 0.390365 0.875389 -0.285146 -0.217309 -0.941183 -0.25875 0.539299 -0.0474169 -0.840778 0.891971 -0.103864 0.440001 0.496449 0.182284 -0.848711 -0.365825 0.47622 0.799617 -0.313324 0.693716 -0.648526 -0.802001 -0.571682 -0.17313 -0.359149 0.19926 0.91176 0.579793 -0.503862 -0.640284 0.263844 0.964473 0.0133772 -0.963303 0.253366 0.0886153 0.766025 0.58031 0.276487 0.0962447 -0.844038 -0.527576 -0.725425 -0.21237 0.65472 0.174156 0.630201 -0.756648 0.254261 -0.941935 -0.21934 -0.331745 -0.45302 -0.827477 0.753777 0.312487 0.578076 0.406682 -0.87417 -0.265399 0.808016 0.0683373 0.585184 -0.184542 0.975237 -0.121889 -0.761951 0.265818 -0.590569 0.161679 -0.472677 -0.866277 0.797165 0.41007 0.443138 -0.920969 -0.34776 0.175726 0.136661 0.571467 -0.809166 -0.0970449 -0.730754 -0.675708 0.0406369 0.514861 0.85631 0.998847 0.0463893 -0.012381 -0.0224622 0.922146 -0.386189 0.533846 -0.4455 0.718705 0.421673 0.815091 0.397264 -0.951554 0.0477626 0.303749 0.982497 0.164405 -0.0875885 0.509944 -0.505524 -0.69599 0.849094 -0.184135 -0.49511 0.07855 -0.992049 0.0983266 -0.00539532 -0.110207 -0.993894 0.394575 -0.51833 -0.758713 0.783312 0.19544 0.590106 0.393724 -0.776704 -0.491643 -0.176335 0.0636234 0.982272 0.856872 0.498512 0.13136 -0.0101403 -0.844512 -0.535441 0.106526 0.94531 0.308288 -0.806544 0.574921 0.137664 -0.94402 0.00716402 -0.329809 -0.20439 0.0113934 0.978823 0.154239 -0.861956 0.482952 -0.626678 -0.421388 0.655521 0.112217 0.203755 0.972569 -0.292956 0.956101 -0.00694102 -0.517443 -0.786659 0.33678 -0.129124 0.751164 0.647363 0.58624 0.335017 0.737622 -0.972313 -0.194851 0.129 -0.33873 0.8867 -0.314682 0.575964 0.0778672 -0.813758 0.822072 -0.177827 0.540902 -0.416911 -0.807266 0.417741 0.310192 0.336201 -0.889241 0.876533 0.345138 -0.335514 0.578652 -0.638943 0.506867 -0.615608 0.736812 0.279526 0.526928 -0.725634 -0.442496 -0.412841 0.726914 -0.548779 0.658972 -0.703094 0.267237 0.299654 -0.154839 -0.941399 -0.824537 -0.532284 0.191866 0.846407 -0.451012 0.283165 0.24829 -0.471693 -0.846084 0.0405383 -0.851361 0.523011 -0.0681868 0.39876 -0.914517 0.564682 0.568724 0.598069 0.0915561 -0.0671143 0.993536 -0.842659 -0.53318 -0.0751288 -0.525961 0.337052 -0.780872 -0.977542 0.0122652 0.210382 -0.289561 -0.106206 -0.951249 0.968988 0.0735813 0.235899 0.0644829 -0.10033 0.992862 -0.51275 -0.500198 0.697775 0.998952 0.0270139 0.0369392 0.751222 0.0411265 -0.658767 -0.259794 -0.789567 0.555959 0.18382 -0.133417 -0.973864 -0.954651 -0.0130697 -0.297441 0.158764 -0.391475 0.906389 0.823203 -0.479811 0.303511 -0.0753519 -0.667308 -0.740961 0.00640219 0.851208 0.524789 0.467838 0.0989261 0.87826 0.585765 0.513278 0.627236 -0.995204 0.073449 0.0646064 -0.106009 -0.294847 0.949646 0.784781 0.608854 0.115824 0.160477 0.917951 -0.362786 -0.914899 0.179967 0.361347 0.387104 -0.61714 0.685047 0.650407 0.347525 0.675424 0.581743 0.797393 -0.160436 0.488792 -0.762299 -0.424243 0.501568 -0.437461 0.746363 -0.861704 -0.342183 -0.374669 -0.300529 -0.783774 0.543489 0.855183 -0.416714 0.308238 0.826146 0.563403 -0.00780437 -0.199582 -0.0333325 0.979314 -0.644436 0.741751 0.185762 -0.849462 0.0510331 -0.525175 -0.769917 -0.190224 0.609132 -0.460066 -0.723073 -0.515272 -0.486715 -0.693574 -0.531097 0.506596 -0.747789 -0.429152 -0.766247 0.244366 0.594265 0.993312 -0.0542164 0.101944 0.000433295 0.861349 0.508013 -0.812665 -0.574028 -0.100341 -0.853206 0.505775 0.1274 -0.85364 -0.355574 -0.380613 -0.269187 -0.958281 0.0961022 0.793038 -0.281603 -0.540176 0.676802 -0.733214 -0.0658447 -0.0881312 -0.277161 -0.956773 0.192262 -0.953084 0.233806 0.0541297 -0.0425508 -0.997627 -0.970291 -0.24194 0.000206065 0.572811 -0.759431 0.308466 -0.119717 0.0812885 0.989475 0.784225 0.611647 0.104299 -0.355919 0.742644 -0.567276 -0.533946 -0.477031 -0.6981 0.270253 0.936681 -0.222693 0.33571 0.905975 0.25789 0.374758 -0.761516 0.528819 -0.498126 0.853076 0.155347 -0.420986 0.342644 -0.839861 0.440964 -0.882494 -0.16357 -0.403718 -0.805595 0.433623 0.529158 0.498706 -0.686502 -0.331505 0.103569 0.937751 -0.554283 -0.0948858 0.826902 0.646628 -0.568641 0.508448 0.484702 0.0481465 0.873353 -0.71722 -0.437135 -0.542687 0.742524 -0.17734 -0.645917 0.364244 0.155174 0.918285 -0.19344 -0.43197 -0.880899 0.394228 -0.63826 -0.661217 -0.37985 -0.83306 0.40215 0.534999 -0.714556 0.45076 -0.671309 0.713665 -0.200067 -0.516611 -0.449194 0.728929 0.383447 -0.914789 0.127004 0.65555 0.67949 0.329467 -0.137132 0.173044 0.975321 0.685135 -0.424591 0.591871 0.795039 -0.360199 0.488026 -0.428394 -0.0367702 0.902843 0.918848 0.140222 -0.368858 0.123809 0.500421 -0.856884 0.16572 0.96786 0.189168 -0.223255 -0.0874877 0.970826 -0.818058 0.479339 -0.31783 -0.154407 0.986263 0.0586902 -0.788499 -0.568076 -0.23571 -0.752231 0.183395 0.632862 -0.151071 -0.952676 0.263791 0.179242 -0.65207 0.736666 0.0821048 0.321506 0.943341 -0.820244 -0.105527 -0.562196 -0.0971375 0.973576 0.206676 0.33024 -0.360669 0.872273 0.205864 0.619581 -0.757456 0.650793 0.756392 -0.0658707 -0.528944 0.841338 -0.111215 -0.223276 0.559437 0.798234 0.305668 -0.2819 0.90945 0.311452 0.855075 0.41454 -0.0861889 -0.951217 -0.296239 -0.85376 0.446833 0.267272 0.765124 0.639435 -0.0755573 0.988055 -0.151158 0.0299662 -0.732863 -0.36677 -0.573055 -0.873279 0.141993 0.466071 0.459413 -0.320236 -0.828486 -0.890344 -0.275984 0.362106 0.916062 0.150141 -0.371872 0.75934 -0.497539 0.419353 -0.363433 -0.678707 0.638179 0.804996 -0.0434442 -0.591688 0.894374 0.101622 0.435624 -0.31038 -0.426258 -0.849687 -0.721179 0.205957 -0.661424 0.46292 0.861963 0.206699 0.640279 -0.571115 0.513683 0.247904 -0.968777 0.00378796 0.957909 0.124394 -0.258722 -0.0975418 0.88529 0.454695 0.000583525 -0.287803 -0.957689 -0.411767 0.486036 -0.770854 -0.782295 -0.0827679 -0.617385 0.704892 0.520635 -0.481734 -0.0161347 -0.779985 -0.62559 -0.173273 0.603399 -0.778387 0.267497 -0.765074 0.585753 -0.943325 -0.274289 -0.186825 0.803348 0.216506 0.554759 0.667552 0.611781 -0.42438 -0.460485 0.22507 -0.85866 0.2066 0.932983 -0.294719 0.901752 0.218397 -0.373023 0.695151 -0.714586 -0.078304 0.850515 0.131041 0.509366 -0.469805 -0.714313 0.518691 -0.728352 0.632437 -0.263677 0.269388 0.598572 -0.754415 0.946348 -0.0642962 -0.316687 -0.67691 -0.701854 -0.221798 -0.349484 -0.779449 -0.519923 -0.0823077 0.723732 -0.685155 -0.457879 -0.866614 0.19831 -0.994454 -0.0950548 0.0450092 -0.739978 0.672317 -0.0205486 -0.475697 -0.22509 -0.850322 -0.0786821 -0.904077 0.420065 -0.428459 -0.21052 0.878695 0.28505 -0.953499 -0.0979058 0.618559 0.151792 -0.770937 -0.0605194 -0.581148 -0.811544 -0.679079 -0.732941 -0.0406089 -0.62393 0.781092 0.024629 -0.663637 -0.416293 0.62152 -0.0108419 0.976078 0.217149 0.503612 0.35308 0.788486 0.279389 -0.619892 0.733263 -0.224222 -0.972972 -0.0552222 0.211769 -0.97508 -0.0661349 0.931186 0.350111 -0.101559 0.97732 -0.160176 -0.138526 0.267511 0.961649 -0.0605666 0.350677 0.126305 0.92794 0.573023 -0.00654668 -0.819513 0.806837 0.00761495 0.590725 -0.130971 0.079473 -0.988196 -0.372321 0.315037 0.873 0.582358 0.810396 0.0641675 -0.360597 -0.481957 0.798553 -0.880318 0.473335 0.0315375 0.978114 -0.161117 -0.131659 0.0229715 0.504549 0.863077 0.215957 0.976399 0.00277791 -0.494873 -0.794137 -0.352771 0.192986 0.471851 -0.860299 -0.239103 -0.15899 0.957889 -0.0313407 -0.132878 -0.990637 -0.915042 -0.24709 -0.318819 0.143682 0.237844 -0.960617 -0.359695 0.930987 -0.0623047 -0.149609 0.534321 0.831937 0.921311 -0.377742 -0.0921824 0.158745 -0.399131 0.903047 -0.135734 0.636328 -0.759383 -0.809539 -0.446554 -0.381099 0.948966 0.148108 -0.278439 -0.0512976 0.0119554 0.998612 -0.26306 0.856083 0.444883 0.0695196 -0.150416 0.986175 0.0912119 -0.714262 0.69391 0.70443 -0.0263534 -0.709284 -0.0934911 0.623506 -0.776209 -0.523836 -0.619863 -0.584266 0.822632 0.213593 0.52693 0.547379 -0.193639 -0.814174 -0.550696 -0.230886 0.802138 -0.0454019 -0.0963138 0.994315 0.460282 -0.176326 -0.870086 0.343427 -0.933761 -0.100741 0.919398 0.185897 -0.346625 0.488213 0.640359 0.592949 0.813939 -0.199672 -0.545558 0.862468 0.464869 0.200117 0.0485286 0.664541 0.745675 0.744895 -0.539332 -0.392749 -0.968142 -0.244205 0.0553521 0.0375028 -0.998073 0.0494364 0.00854451 0.21956 -0.975562 -0.925893 0.321626 -0.198191 -0.688722 -0.608927 -0.393535 0.308611 0.326894 0.893252 -0.0188566 -0.992484 0.12091 0.846949 0.531659 0.00412591 -0.441477 0.854684 -0.273156 0.850848 0.514578 0.106148 0.37687 -0.757085 -0.533659 0.647929 0.734821 -0.200564 0.759512 -0.043796 0.649017 0.808391 0.093299 0.581205 -0.30615 -0.872079 0.381773 -0.207643 -0.350401 -0.913293 -0.641569 0.4511 0.620401 0.3474 -0.231549 0.908679 0.472962 -0.562271 0.67835 -0.708833 0.690224 0.145418 0.399097 0.479041 0.781819 -0.373145 -0.60083 0.706942 -0.844462 0.204177 -0.495172 -0.710781 0.329848 0.621282 0.735416 0.361523 -0.573118 -0.864866 0.496267 0.0756664 -0.687206 0.440979 -0.577309 0.703647 0.707669 -0.0639252 -0.809832 -0.32999 -0.485055 0.324243 0.592242 -0.737643 -0.165078 0.796178 -0.582108 -0.103836 -0.80404 -0.585438 -0.458543 -0.365825 0.809883 -0.0964502 -0.959442 -0.264893 0.426279 -0.331628 -0.841611 0.440338 -0.404997 0.801299 0.522729 0.627814 -0.576718 0.758576 0.308115 -0.574132 0.472509 0.77549 0.41875 0.846223 -0.516591 0.130541 -0.225417 -0.0305517 -0.973783 -0.498587 -0.71631 -0.488171 0.994634 -0.0984718 -0.0317373 -0.692357 0.280178 0.664937 -0.958907 0.0684476 -0.27534 -0.26655 -0.211731 -0.940277 -0.0290196 -0.999384 -0.0197547 -0.608674 -0.679745 0.409222 0.60281 0.243252 0.759901 0.992124 -0.125209 -0.00344492 -0.387631 0.158228 0.908133 -0.0054616 0.289342 -0.95721 -0.208732 0.924582 -0.318715 -0.394912 0.138559 -0.90821 -0.18618 -0.786024 -0.589495 -0.858795 -0.459569 0.226425 -0.97823 -0.0930898 -0.185474 -0.984621 -0.174705 -0.000843213 -0.140656 0.137897 -0.980408 -0.220281 -0.340209 0.914185 0.723483 -0.690241 0.0118165 0.130548 0.964576 -0.229239 0.999228 -0.00787835 -0.0384862 -0.352449 0.824761 0.442209 -0.197505 0.708244 0.677777 0.912624 0.408675 0.0100988 -0.987626 0.154733 -0.0255317 -0.23637 -0.387701 0.890964 0.013066 0.582145 -0.81298 -0.876884 -0.339937 -0.339878 0.682903 0.511432 -0.521613 -0.944819 0.083913 0.316664 -0.718754 0.631948 -0.289888 -0.397376 0.14695 0.905813 0.370072 -0.539803 -0.756081 0.609074 -0.773831 0.173823 0.95619 -0.284883 -0.0673944 -0.134566 -0.884796 -0.446125 0.167328 0.0244136 -0.985599 0.370621 0.0256195 -0.928431 0.148757 0.0390798 0.988101 -0.96004 0.109425 0.257583 0.179865 0.799972 0.572446 0.10623 0.865766 -0.489044 0.919226 0.347577 0.184967 -0.508083 0.670952 0.54007 0.295374 -0.0916687 -0.950974 -0.125942 0.445293 -0.886483 -0.422001 0.499227 0.756761 -0.807765 0.544047 -0.226999 0.946721 0.250387 -0.202547 -0.19568 -0.775841 -0.599817 0.799416 -0.0216243 -0.600388 0.876396 -0.334794 0.346184 -0.754509 0.579279 -0.308466 -0.157061 -0.968737 -0.192043 0.485546 -0.639444 0.596118 0.0769795 -0.31317 0.946572 0.0313639 -0.998847 0.0363552 0.500232 -0.42696 0.753309 -0.92655 -0.345397 0.149015 0.571447 0.10847 -0.813439 -0.160455 0.851033 0.499997 0.164781 -0.478376 -0.862556 0.274768 -0.883531 0.379309 -0.930045 0.141141 -0.339258 0.144932 0.843324 -0.517493 0.90192 0.364558 -0.231597 -0.673193 -0.696289 -0.248983 -0.920902 -0.377547 -0.0969387 -0.0698435 -0.547321 -0.834004 -0.988404 -0.149432 -0.0269732 -0.864681 -0.419088 0.276932 -0.778451 -0.307146 0.547425 -0.532051 0.843589 -0.0726563 0.335789 0.421423 -0.842406 0.5109 -0.25308 -0.821542 0.859284 -0.294893 0.417935 0.296046 -0.916811 -0.267983 -0.671121 -0.111473 0.732919 -0.638474 0.753516 0.156731 0.502178 -0.397762 0.767855 -0.140771 0.807317 0.573081 -0.995309 0.0960534 -0.0115559 0.99631 -0.0677763 0.05266 -0.149149 0.188295 0.970721 -0.962058 0.262265 0.0752452 -0.20413 0.121222 0.971409 0.519692 0.329424 0.788289 -0.472806 -0.863117 0.177436 0.599241 -0.714743 -0.360627 -0.137638 0.396389 0.907707 -0.615577 -0.752155 -0.235217 0.0817266 -0.994959 -0.0581171 -0.627135 0.228889 -0.744521 0.951001 0.216543 -0.220694 0.832816 -0.00882408 0.55348 -0.213514 0.81165 0.543724 -0.222084 -0.849829 -0.477985 0.445553 -0.892626 -0.0685705 -0.126945 -0.505266 0.853576 0.398072 0.905096 -0.149465 -0.0239738 -0.376386 -0.926153 0.502635 0.527009 0.685288 -0.746616 0.653543 -0.124279 0.796358 0.568529 -0.206372 0.661815 -0.645754 0.380792 -0.833877 -0.484208 0.264936 -0.526086 0.693205 -0.492646 -0.390941 0.26237 0.882228 0.533494 0.839413 0.103777 0.778607 -0.533359 -0.330603 0.633067 0.247626 0.733422 -0.554417 -0.26748 -0.788084 0.474713 -0.697523 0.536758 -0.247784 0.643435 0.724289 -0.834231 0.14924 0.530835 0.298232 0.666719 0.68304 0.22462 -0.459824 0.859132 -0.905944 -0.391014 0.162397 0.991169 0.0123962 0.132022 0.827044 -0.342619 0.445657 -0.0552011 -0.835397 0.546868 -0.560802 0.625247 -0.542741 0.495903 -0.655101 0.57002 -0.830587 -0.515518 -0.210633 0.821516 0.523614 -0.225698 -0.619581 0.328407 0.712929 0.344336 -0.912686 0.220085 -0.0964985 0.0442719 -0.994348 -0.749507 0.64112 -0.164936 0.396866 -0.534305 0.746335 -0.271437 0.813696 0.514024 0.356419 -0.561476 -0.7468 0.652811 -0.420633 0.630005 -0.829027 -0.441005 0.343845 0.530253 -0.649707 0.544713 0.664474 -0.543733 -0.512669 0.683719 0.672526 -0.283261 0.673122 -0.685971 0.276315 0.571225 0.4542 -0.68367 -0.901665 -0.306599 0.304954 -0.625342 0.612796 -0.483144 0.49878 -0.017124 0.866559 0.15646 -0.868814 0.469769 -0.34232 -0.851689 -0.39679 -0.620122 -0.426893 -0.658188 0.144772 0.982419 -0.117876 -0.482849 0.185304 -0.855873 0.417039 -0.767988 0.486079 0.953543 -0.236109 0.187103 0.682997 -0.15426 -0.713946 -0.674419 0.667739 0.315093 0.415892 -0.051597 0.907949 0.964038 -0.24822 0.0949571 -0.331883 0.832717 -0.443211 -0.898575 -0.37391 0.229682 0.887982 0.255339 0.382478 -0.617204 0.143823 -0.773546 0.302409 -0.201774 -0.931577 0.310236 -0.529383 0.789624 -0.1744 -0.456567 0.872429 -0.859345 -0.51083 -0.0240598 0.612913 0.704307 0.358175 0.772626 0.42403 -0.47249 -0.0662367 0.518306 0.852626 -0.590989 0.793797 0.143592 0.0775437 -0.94094 -0.329573 -0.617054 0.0610505 -0.784549 -0.904721 -0.227993 -0.35986 0.42377 0.685283 0.592288 -0.784504 0.610216 -0.110404 -0.800068 0.0705582 0.595745 0.444484 0.437241 -0.781828 -0.539586 0.754488 -0.373624 -0.909386 -0.340978 0.238223 0.606883 0.585515 0.537462 0.863345 0.43126 0.262011 -0.516673 0.852939 -0.0744648 -0.0499956 0.985767 0.160511 -0.579448 0.572307 -0.580263 0.389066 0.913613 0.118062 -0.550667 0.791903 0.263922 0.906516 0.0291922 -0.421162 -0.793401 -0.379891 -0.475602 -0.211041 0.733757 0.645804 0.491278 0.508763 0.70697 -0.420272 0.812211 -0.40458 -0.267543 -0.238319 -0.933608 -0.306781 -0.936732 -0.168577 0.222123 0.709432 -0.668856 -0.549223 0.432312 -0.715165 -0.853484 -0.509039 0.111556 0.678142 0.0379343 -0.733951 -0.790333 0.573775 0.21484 -0.478231 -0.113393 0.870883 0.312101 -0.687168 0.656044 0.526307 -0.527112 0.667199 0.274432 0.92014 0.279337 -0.673896 0.220048 -0.705296 0.734366 -0