# vtk DataFile Version 4.0
Generated by libgran
ASCII
DATASET POLYDATA
POINTS 1686 FLOAT
-32.6857 1.38469 6.83676 -31.4877 0.666901 8.16737 -33.3078 1.36589 5.16431 -32.245 2.33374 6.22971 -33.8754 0.326878 9.09102 -33.77 1.85295 4.05271 -31.7918 -0.112505 12.8855 -31.8449 -1.77953 13.4645 -32.1816 0.57175 11.8141 -32.1792 -0.573151 10.439 -31.5992 1.06335 10.4569 -30.8518 1.08368 9.37997 -31.835 -3.26778 16.1015 -30.8913 -3.05969 15.1882 -30.8143 -1.91657 15.143 -29.9695 -0.446381 14.6969 -29.3552 -0.19527 15.445 -29.2219 0.309434 14.0221 -33.3094 -3.93286 14.0334 -35.4845 -4.30521 15.3145 -34.3283 -3.92279 14.7806 -34.6834 -4.11232 16.4825 -36.2428 -4.74986 14.3104 -34.1457 -4.44621 17.5159 -34.3193 -3.05566 17.9316 -34.6337 -2.58737 18.9979 -33.3549 -2.59437 19.3355 -33.2103 -4.05231 22.047 -34.1865 -3.03656 22.6822 -33.422 -3.11303 20.9967 -33.2361 -5.30712 22.4861 -34.3747 -6.66204 22.1026 -33.9432 -3.05303 24.3483 -32.6499 -3.65378 19.7373 -33.7863 -7.30221 20.1014 -34.601 -8.43547 19.7987 -32.5371 -7.74626 20 -31.4454 -7.93786 19.9686 -30.922 -6.77502 21.253 -31.6339 -6.14303 22.715 -30.4834 -5.37419 21.4151 -33.9558 -9.61131 20.7875 -25.7649 -11.8289 23.1746 -26.6889 -11.3535 22.3451 -27.9339 -12.3054 22.1997 -25.4109 -11.1427 25.0091 -26.7994 -11.1809 25.424 -29.3441 -13.269 22.2459 -31.1833 -10.764 19.7073 -30.1461 -10.1546 18.9829 -30.6849 -11.9102 20.1612 -32.2131 -11.7202 20.5055 -29.9421 -12.9316 21.1645 -33.0842 -10.7869 21.3937 -29.1139 -11.3502 18.0128 -28.9896 -12.5479 16.816 -28.0546 -14.7078 17.4071 -27.6712 -14.4745 16.1552 -28.9084 -13.7474 16.2288 -26.8492 -14.0923 18.4825 -25.8584 -13.9364 15.9167 -25.3089 -13.8423 18.9802 -25.2004 -14.9484 19.2003 -25.0699 -12.0517 12.3492 -26.0507 -12.5644 12.0274 -26.4635 -11.129 12.7971 -23.8135 -12.0254 12.7839 -23.6097 -12.673 11.2734 -23.7683 -11.8698 14.6413 -24.5277 -12.6827 15.8296 -35.9638 15.3815 3.20053 -35.9894 14.8072 1.30132 -35.9284 13.8164 1.18003 -35.1077 15.9364 4.42681 -34.6577 15.8253 5.42138 -33.7118 16.1357 5.5161 -34.1555 15.6477 6.26772 -39.069 14.2025 0.442992 -39.8153 14.8947 -0.411349 -38.0341 15.5368 0.0758004 -38.4446 13.8611 1.29703 -39.3038 12.4343 0.656206 -40.0661 11.3797 1.01967 -40.831 10.2729 1.65883 -44.9942 10.8594 0.591101 -45.0882 9.9602 -0.157554 -45.5122 12.1916 -0.322965 -44.5334 12.3673 1.81965 -41.747 9.74845 1.48031 -40.7124 8.71416 0.800919 -40.9139 8.95253 -0.48801 -40.5716 7.98785 -0.996594 -40.6316 7.24479 0.398902 -40.7057 10.4046 -1.46049 -42.2105 9.4514 -1.17097 -40.6622 10.7616 -2.7505 -40.7074 5.79779 -0.0341662 -41.1976 5.81295 1.5104 -41.2058 7.22481 -7.40372 -40.3123 6.92115 -8.34048 -41.3623 5.48571 -8.10809 -41.6071 8.73564 -9.11983 -42.3199 8.17268 -9.68433 -42.6869 8.99158 -8.01171 -43.4361 7.7898 -10.4217 -43.3997 8.42862 -8.57621 -42.3676 4.00268 -7.87662 -42.456 9.34952 -5.88334 -43.0821 9.32162 -7.0681 -42.6545 9.35689 -4.67236 -43.113 9.19854 -3.65792 -43.9467 8.88947 -2.976 -43.1499 8.73268 -2.28481 -44.9608 10.254 -3.32995 -43.5669 10.0438 -1.22672 -39.7584 3.42042 -10.1892 -38.4312 3.56381 -11.2579 -39.101 2.35424 -9.85901 -40.0569 4.67192 -9.85324 -40.3734 5.89693 -10.3043 -42.0218 5.83521 -10.2955 -39.6689 0.821164 -9.41607 -43.0844 5.39264 -10.8661 -42.355 0.5248 -6.79203 -41.6662 1.67606 -6.97318 -42.795 2.40957 -7.23827 -40.4363 2.73822 -7.33933 -25.847 12.9948 19.7507 -26.3215 13.971 20.5188 -24.769 14.0984 20.1457 -27.153 12.2893 18.6212 -29.0134 12.8115 19.8015 -29.6275 10.3855 18.0513 -29.7205 11.934 17.006 -30.301 9.30547 17.9071 -29.7945 8.54677 18.4937 -28.9405 11.8009 16.3944 -31.9578 8.90088 18.0974 -30.8909 9.32491 16.5608 -32.5123 8.68386 19.676 -26.6944 4.09578 13.4459 -26.5269 2.9753 13.3492 -27.02 5.30477 13.8934 -28.5646 4.60776 13.7773 -28.0194 2.27643 14.0558 -27.722 1.89101 12.6346 -28.5097 1.61074 15.3887 -27.3493 1.09623 11.5023 -26.9807 1.2906 10.5124 -29.7913 8.87287 15.6132 -30.9399 8.84933 14.9437 -28.4907 8.96414 15.1124 -30.9129 7.31962 14.0275 -32.0037 8.73849 13.7874 -31.4481 6.08205 13.9652 -30.037 5.55901 13.866 -33.2563 6.56462 5.69031 -34.2963 6.12593 4.98756 -32.7662 7.39762 6.3719 -32.3936 5.7378 6.90748 -36.0601 5.55121 5.53712 -34.1618 3.99574 6.74924 -37.2018 6.07562 5.02074 -36.9395 6.0775 3.52881 -40.1373 4.83459 3.60552 -38.574 4.37066 3.759 -41.2916 5.29255 3.13357 -41.5453 4.70708 1.4109 -37.4492 5.75781 2.68094 -38.0401 3.68328 5.04146 -32.4919 5.61123 11.695 -31.7818 7.88237 10.7005 -33.0867 8.23418 11.8137 -33.2896 8.60559 12.8369 -34.0982 7.60001 13.2727 -32.2959 10.1281 13.017 -34.5721 6.32053 13.9258 -34.6454 3.35315 9.31327 -34.2403 3.20195 10.5706 -33.6803 3.49973 7.58342 -33.6313 3.46592 11.8001 -26.171 23.334 28.3091 -26.6075 22.0569 28.8035 -26.1868 22.8575 29.8756 -25.9212 23.5177 27.0161 -26.2882 24.981 27.6542 -27.033 26.1726 27.7456 -23.3676 23.517 28.2253 -23.0349 23.7214 30.5379 -23.8703 24.3355 31.7198 -22.7664 23.5024 29.2542 -22.3338 23.1954 28.2786 -24.087 25.3578 28.8122 -23.8375 24.4565 32.9506 -25.7982 27.4498 33.1661 -25.4249 28.4147 34.0043 -26.4565 29.2773 33.2977 -26.1382 26.8202 32.3194 -25.1902 26.1139 32.0421 -23.8308 28.9627 35.015 -25.9248 25.2593 31.3663 -21.1889 25.9128 34.8002 -21.357 24.6048 34.971 -21.052 27.0058 34.8169 -20.0314 27.6279 35.641 -21.0854 28.4549 35.2474 -18.483 27.305 36.352 -18.6425 28.5513 35.9966 -22.0948 29.3857 35.1423 -20.1675 29.5626 34.7403 -28.2152 23.7306 33.1118 -28.6626 25.9718 33.5257 -30.7451 24.8799 35.5871 -30.6375 23.7699 34.7047 -30.2434 23.1355 32.9552 -26.9122 23.4676 32.9985 -32.0092 20.9596 30.9908 -32.5948 21.7878 32.4655 -30.7525 20.7271 30.6195 -29.8973 20.4115 30.2084 -32.6905 22.8029 33.7495 -33.5897 22.3945 33.5925 -35.3644 22.904 33.4167 -36.1179 22.8585 32.1168 -35.7304 21.9956 31.6243 -37.0899 24.2709 31.3486 -37.5771 24.0478 32.9844 -38.0228 24.7746 32.0031 -36.7935 22.0671 33.4473 -37.6139 25.016 34.5961 -37.773 26.0829 32.7192 -41.5233 25.632 35.9572 -40.9377 26.7329 35.4957 -39.9977 25.9554 34.9938 -38.6 25.9074 34.7055 -41.4748 25.9877 33.7854 -37.4789 26.1074 34.3427 -36.4148 9.24736 22.4399 -36.563 8.22778 23.2796 -37.8883 9.49319 23.1656 -35.0472 9.00919 21.5495 -36.1121 10.3768 21.5573 -33.7644 7.69025 21.2445 -32.7952 6.92835 20.4766 -33.3289 6.22772 19.746 -31.6647 6.41882 19.7176 -33.8967 5.21601 19.0963 -33.9638 4.76878 20.4591 -29.8516 4.7565 19.1749 -29.438 5.75939 18.8497 -41.1198 10.3064 22.1209 -41.7304 9.62509 23.0858 -43.142 9.30959 22.3427 -41.2951 11.7692 22.3795 -42.6056 11.5632 21.7443 -39.6386 7.76238 20.386 -39.7172 9.34566 21.0684 -39.0669 7.37012 21.2699 -38.478 6.938 21.9529 -36.8012 7.19043 21.1919 -37.6218 6.23878 22.4603 -30.1886 16.0167 22.4875 -31.3099 16.0977 23.1977 -30.1485 15.7587 24.3675 -29.169 15.4618 21.786 -30.0887 15.2147 20.7727 -32.279 16.9035 23.4521 -31.7996 17.8712 24.8413 -30.7288 18.5199 26.3191 -33.8401 10.912 20.0618 -32.8609 10.593 20.8674 -32.1113 11.5945 20.0069 -34.7729 11.8388 19.8627 -35.728 10.9886 20.6311 -30.9098 11.6814 20.7577 -30.7241 12.6638 20.7369 -29.5947 19.8698 26.7556 -29.6414 18.3077 26.4936 -30.4068 19.9773 28.9347 -31.7944 20.0229 27.8406 -29.3999 16.7685 26.6051 -28.7861 15.5898 27.4467 -31.4958 20.3004 25.4888 -32.4802 19.6844 26.5057 -31.3507 21.6147 25.6294 -32.8632 22.3641 25.274 -34.48 22.1976 25.3569 -34.4103 23.5344 23.6529 -5.92277 24.7562 38.202 -4.93077 24.7092 38.3192 -7.17393 24.3004 38.2525 -5.40562 24.006 37.7899 -7.96224 25.4155 39.3292 -8.75804 23.9677 38.7274 -8.80812 25.0501 38.9406 -8.82011 25.9178 39.4375 -4.6787 23.0005 38.0115 -3.6111 23.6753 37.3823 -4.26349 21.3112 38.0586 -9.63312 23.0904 37.6701 -5.53271 19.5345 39.387 -5.63608 20.4548 38.1594 -6.37604 18.3868 39.6311 -6.82665 17.4075 39.9378 -3.72257 20.6549 38.9887 -0.973806 24.9659 38.3701 -2.08884 25.0986 37.6579 -2.28764 23.8792 37.558 0.116968 26.4876 38.2368 -2.06622 26.7372 37.2995 -2.43821 22.638 37.4006 -2.2075 28.5107 37.6546 0.530417 30.8592 37.9982 1.34388 29.6368 38.7366 -2.25886 30.1619 37.3253 2.33907 29.2125 37.9362 -3.05542 29.5148 38.6895 -20.8536 31.7872 42.4196 -19.634 31.3547 42.1136 -20.9149 31.8107 44.1207 -22.0967 31.207 42.7335 -18.3401 30.2693 44.5345 -18.7268 30.6411 46.0878 -17.7767 29.6256 43.0271 -15.4484 28.777 41.1252 -16.2277 28.5984 42.1876 -14.4946 27.435 40.9596 -17.2783 28.4666 42.3849 -17.1115 27.3327 43.347 -16.1988 26.8662 42.7652 -13.3101 27.4421 41.7497 -14.0993 26.9401 42.4032 -16.9386 26.5143 44.7023 -11.2188 23.9829 42.4337 -12.4545 24.293 42.8213 -11.0927 24.4598 41.5638 -10.2977 24.1311 42.0737 -12.7478 25.2499 43.8828 -13.131 24.2106 44.6885 -13.4238 26.6815 43.7096 -10.347 25.5921 41.2303 -15.0241 26.5498 43.1464 -10.1296 27.6396 39.1209 -9.51651 26.5025 38.7753 -10.7072 27.2014 40.4986 -10.8266 28.1787 40.674 -11.704 27.6866 39.1735 -10.6418 27.5535 41.4323 -19.9858 35.0566 39.7015 -20.1447 35.9669 38.0346 -19.0282 35.5268 40.496 -18.9782 37.1241 40.2836 -18.6466 36.8753 41.1936 -19.213 37.6906 41.0736 -19.264 38.8158 40.555 -20.0047 35.6006 36.995 -20.8366 36.9837 37.5011 -18.1458 38.1116 41.8821 -19.2998 40.7941 44.4696 -21.0104 40.443 43.902 -21.1712 41.0054 44.9101 -21.2573 39.665 42.5437 -22.5919 39.6887 43.752 -19.8862 39.511 41.3363 -18.1968 39.2368 41.3635 -21.1871 42.8223 46.2823 -20.1099 43.4581 44.972 -20.581 42.387 47.3828 -21.7592 41.6467 46.1805 -20.0655 43.5576 43.7103 -18.9135 44.3428 44.5119 -20.6751 39.95 48.4815 -21.5057 38.901 51.559 -20.9086 40.0271 51.1804 -22.0111 40.7482 51.8632 -19.973 39.8488 49.9482 -18.4821 40.8262 49.8016 -22.9702 41.4465 51.6706 -16.6819 28.3563 38.8214 -15.9819 28.0821 37.7247 -16.1898 29.4521 37.521 -15.6898 26.5438 37.7457 -17.317 29.7058 36.5453 -14.6238 26.0667 38.9224 -13.176 26.936 39.0441 -18.721 29.5763 35.5071 -19.0208 30.6921 34.3234 -18.3 30.0016 34.262 -18.1288 30.9331 33.941 -19.3141 31.7813 36.0146 -18.9084 31.2419 37.057 -21.8611 30.1944 37.1104 -22.3655 31.3706 36.0499 -22.1272 33.6753 41.5571 -23.7192 32.967 41.6774 -21.4895 32.8278 40.7552 -21.9121 32.7069 39.5517 -24.7778 31.3467 41.722
[...]
POINT_DATA 1686
FIELD FieldData 1
normals 3 1686 double
-0.391915 0.434115 -0.811139 0.806027 -0.283671 0.519473 -0.230249 -0.452913 -0.86131 0.832579 0.51494 0.204082 -0.60822 0.72227 0.329233 -0.231946 0.939976 -0.250291 -0.395017 0.913425 -0.0980588 -0.448137 -0.753599 0.480898 0.00521698 -0.22917 -0.973372 -0.00282105 -0.91573 -0.401785 0.577203 0.720776 -0.383822 0.17013 -0.70045 -0.693127 -0.406834 -0.841334 0.35587 0.536921 -0.633253 -0.55741 0.613929 0.509866 -0.602601 0.230808 0.960328 0.156521 -0.38348 0.709217 -0.59157 0.516829 -0.204513 -0.831302 -0.809712 0.5852 -0.0436678 -0.947001 0.192711 -0.257006 0.209181 0.575133 -0.790863 -0.145932 0.385609 0.911049 0.188723 -0.637361 -0.747098 0.683626 -0.719505 0.122342 0.510106 0.671044 0.538045 -0.824533 -0.202753 0.528239 0.454294 -0.20975 0.865807 0.733249 -0.630371 0.25491 -0.243015 0.385387 0.89018 0.521477 0.308912 -0.795384 -0.759039 -0.624439 0.184218 -0.379611 -0.730483 -0.567705 0.486357 -0.401861 0.775863 0.250652 -0.849663 -0.463946 0.81225 0.16665 0.558997 -0.00243748 -0.966608 0.256249 0.436955 -0.610696 -0.660394 0.65477 0.419093 0.628997 -0.131412 0.743755 0.655408 -0.580481 -0.111767 0.806567 0.570012 0.657076 -0.493293 0.647684 -0.209234 0.732616 -0.352937 0.924731 -0.142507 -0.57114 -0.449308 -0.686965 -0.673857 -0.502628 0.541555 0.788316 0.594012 0.160337 -0.600189 0.555787 0.575216 -0.736273 -0.460972 -0.495386 -0.382598 -0.92319 0.0366061 0.654571 -0.313787 -0.687804 0.881005 -0.22299 0.417259 -0.647162 -0.0330408 0.761636 -0.138223 -0.798406 0.586039 -0.223922 0.966364 0.126491 0.377663 -0.881852 -0.282326 -0.253316 -0.315777 -0.914394 0.519299 -0.0765863 0.851154 0.902698 0.156714 -0.40072 -0.334499 0.883795 -0.327134 0.686064 0.692107 0.224284 0.91005 0.381426 0.162244 0.854269 -0.442094 0.273456 0.745834 0.663984 0.0534424 0.87245 -0.069928 -0.483675 -0.108384 -0.582644 -0.805468 -0.52117 0.852701 -0.035822 0.383882 0.0962366 0.918354 0.587695 -0.551399 -0.592092 -0.33868 0.0593481 0.939028 -0.420691 -0.872269 0.24933 -0.0377077 0.177908 0.983324 -0.0632608 -0.396426 -0.915885 -0.124191 0.5943 -0.794597 0.893786 0.376985 0.242958 -0.443699 -0.488066 0.751614 0.502164 -0.177627 0.846333 0.945863 0.310439 0.0947179 -0.192368 -0.822481 0.535275 -0.938734 -0.13029 -0.319066 0.842499 0.511803 0.168083 0.816717 0.481 0.318767 -0.0424242 -0.945768 -0.322061 -0.719871 -0.108847 0.685521 -0.0451064 -0.997906 -0.0463534 -0.522754 0.851675 -0.0371307 -0.616673 -0.0474951 -0.785785 0.00482145 0.480584 -0.876935 -0.473796 0.876406 -0.0861978 0.870865 -0.473419 0.132169 -0.163721 0.560861 0.81156 -0.365184 0.799225 -0.477369 -0.0228753 -0.165454 -0.985952 -0.0828734 -0.908519 0.409543 0.573332 0.652804 -0.495114 -0.931408 -0.30035 -0.205595 -0.529795 -0.295734 -0.794895 0.00704339 -0.538476 -0.842611 -0.483111 -0.523321 0.701953 -0.251871 0.871405 0.420968 0.641579 0.567748 -0.51579 -0.408405 -0.86769 -0.283406 -0.273575 0.672337 0.687837 -0.986319 0.109368 0.123339 -0.806213 -0.416395 0.42028 -0.129926 -0.492248 -0.860704 -0.0934644 0.146572 0.984775 -0.59687 -0.615342 0.51488 0.21506 -0.718521 0.66142 -0.411053 -0.746426 -0.523339 -0.413605 0.725887 0.549562 -0.0449203 -0.884236 0.464875 -0.788718 0.575166 0.217044 0.00803539 0.418376 0.908238 -0.225428 0.7894 -0.57099 -0.42501 0.8927 0.149844 -0.823518 0.402807 0.399456 0.503692 0.546199 -0.669299 -0.16609 -0.663379 0.729618 0.525065 0.848689 -0.0635174 -0.841561 0.376322 -0.387501 -0.806925 -0.438041 0.396222 -0.401808 -0.869693 -0.286677 -0.255668 -0.00453201 -0.966754 -0.270484 0.907 -0.322784 0.959312 0.244261 0.141625 -0.169472 0.977771 -0.123465 0.270578 0.817898 -0.507771 -0.395398 -0.483197 -0.781141 -0.869939 0.492986 -0.0131005 0.682619 0.620405 -0.386172 -0.910586 -0.222342 -0.348421 -0.713423 0.0121402 -0.700629 0.227256 -0.936881 0.265722 0.134223 0.611658 -0.779653 -0.900819 -0.143136 -0.409924 -0.394297 -0.901839 0.176682 -0.64577 0.744791 -0.168127 -0.755961 -0.261449 0.600139 0.310926 0.162577 -0.936426 0.201453 0.0444211 0.97849 -0.887021 0.429797 0.168723 -0.719554 -0.690686 0.072075 0.56134 0.779193 0.278846 -0.983244 0.0821749 0.162724 -0.772908 -0.00818488 0.634466 -0.47557 -0.393607 -0.786706 0.282575 -0.657509 0.698451 0.848321 -0.401175 -0.345559 -0.479706 0.59555 -0.644362 0.788746 -0.614617 -0.011181 -0.359852 -0.638163 -0.680628 0.511832 0.705884 -0.489648 0.386828 -0.89154 -0.235627 -0.704023 0.527331 -0.475682 -0.922063 -0.346029 0.173386 0.489098 -0.869076 0.0740978 0.233881 -0.0902027 0.968072 -0.806148 -0.528896 0.265319 0.256196 0.923198 -0.286477 0.628758 -0.736624 0.249095 -0.957657 -0.0458212 0.284243 0.951448 -0.306539 -0.0279272 -0.18398 0.570223 -0.800623 0.446194 -0.568343 -0.691301 -0.76534 0.46088 0.449271 0.797917 -0.00304576 0.60276 -0.389036 -0.00292156 -0.921218 0.135333 -0.582542 -0.801455 0.955853 -0.248653 0.156578 -0.264004 -0.684336 0.679696 0.289622 -0.715058 0.636247 -0.520094 0.640647 0.564866 -0.784821 -0.28883 0.5483 0.581883 0.660236 0.47487 -0.226717 -0.345341 0.910681 0.411888 0.862235 -0.294787 -0.247095 -0.934144 -0.257523 0.49516 -0.0428946 -0.867742 0.900289 -0.194089 0.389626 0.469968 0.189474 -0.862108 -0.291301 0.458056 0.839838 -0.344216 0.673145 -0.654516 -0.780748 -0.603982 -0.160121 -0.360049 0.196714 0.911959 0.593981 -0.489374 -0.638513 0.226942 0.973908 -0.000399348 -0.971704 0.217624 0.0918166 0.745326 0.612471 0.263379 0.124278 -0.846127 -0.51829 -0.711194 -0.232042 0.663596 0.14415 0.627112 -0.765475 0.288461 -0.934144 -0.210154 -0.320474 -0.475267 -0.819401 0.744043 0.353091 0.56721 0.436599 -0.861011 -0.260848 0.809912 0.103909 0.577274 -0.221703 0.966499 -0.129338 -0.776666 0.231399 -0.585871 0.171344 -0.474894 -0.863202 0.784181 0.444085 0.433415 -0.905951 -0.379627 0.187446 0.112796 0.553693 -0.825046 -0.0552593 -0.754278 -0.654226 0.0241274 0.539352 0.841735 0.996416 0.0827432 -0.0175699 -0.0575821 0.909729 -0.41119 0.552007 -0.405632 0.728527 0.392483 0.840665 0.373147 -0.951777 0.021064 0.306066 0.975505 0.197964 -0.095916 0.522877 -0.493746 -0.694849 0.85108 -0.156823 -0.501069 0.120434 -0.986626 0.109841 -0.0128881 -0.123376 -0.992276 0.407033 -0.51096 -0.757129 0.780135 0.230701 0.581521 0.418312 -0.764253 -0.490849 -0.167323 0.0639411 0.983826 0.838383 0.531814 0.119531 0.0167957 -0.847436 -0.530633 0.0716358 0.951181 0.300204 -0.827567 0.542806 0.143161 -0.94719 -0.0333325 -0.318937 -0.193712 0.0121637 0.980983 0.19379 -0.850739 0.488558 -0.602038 -0.439964 0.666319 0.114888 0.216875 0.969415 -0.330838 0.943614 -0.011813 -0.481908 -0.803495 0.349514 -0.151672 0.751294 0.642302 0.580653 0.364714 0.727891 -0.962407 -0.231366 0.142276 -0.376751 0.869583 -0.319193 0.563193 0.0921058 -0.821176 0.834496 -0.140129 0.532898 -0.380207 -0.818684 0.430348 0.2866 0.340161 -0.895629 0.816134 0.427996 -0.388259 0.667942 -0.591584 0.451532 -0.657329 0.673834 0.337442 0.55144 -0.666166 -0.502133 -0.51341 0.701456 -0.494337 0.731431 -0.652775 0.197217 0.237716 -0.10912 -0.965186 -0.771405 -0.591514 0.234619 0.892827 -0.400416 0.20622 0.203604 -0.420193 -0.884298 0.136463 -0.867421 0.478497 -0.159853 0.414991 -0.895673 0.57353 0.587899 0.570471 0.181045 -0.0705557 0.980941 -0.791649 -0.610765 -0.0160853 -0.619978 0.295262 -0.726944 -0.95304 -0.0844759 0.290825 -0.357451 -0.121526 -0.925991 0.974016 0.163669 0.156542 0.157214 -0.106317 0.981825 -0.402378 -0.555926 0.72735 0.991316 0.123801 -0.0443282 0.685472 0.128632 -0.716646 -0.135141 -0.823014 0.551711 0.159203 -0.127329 -0.979 -0.96207 -0.0463452 -0.268837 0.199244 -0.385371 0.900994 0.860342 -0.427571 0.27748 -0.0593142 -0.674633 -0.735766 -0.00709573 0.852161 0.523231 0.486518 0.115515 0.866 0.584279 0.533184 0.611828 -0.990413 -0.0131845 0.137505 -0.0112402 -0.332231 0.943131 0.73843 0.66925 0.082617 0.0576101 0.939912 -0.336521 -0.897483 0.0897033 0.431831 0.463051 -0.582352 0.668169 0.64873 0.400039 0.647394 0.549799 0.816691 -0.175318 0.50312 -0.745366 -0.437379 0.526352 -0.413237 0.743094 -0.861225 -0.367629 -0.350914 -0.261588 -0.79386 0.548961 0.875386 -0.384817 0.2926 0.809021 0.586863 -0.0328075 -0.175422 -0.0291377 0.984062 -0.663947 0.727408 0.173357 -0.848513 0.0220079 -0.528717 -0.768342 -0.188494 0.611654 -0.446957 -0.744177 -0.496416 -0.474846 -0.703145 -0.529252 0.517149 -0.750176 -0.412059 -0.776316 0.247366 0.579779 0.991995 -0.0470317 0.117193 -0.0119944 0.867728 0.496894 -0.807794 -0.580057 -0.104896 -0.857876 0.502297 0.10838 -0.845882 -0.365431 -0.388514 -0.265075 -0.958558 0.104411 0.80252 -0.283752 -0.524831 0.680283 -0.730705 -0.0573216 -0.067292 -0.297319 -0.952404 0.139408 -0.963352 0.22917 0.0360416 -0.0430745 -0.998422 -0.982734 -0.184416 0.0149669 0.532125 -0.794818 0.291733 -0.139365 0.0744042 0.987442 0.792892 0.599071 0.111516 -0.322142 0.731727 -0.600666 -0.520943 -0.487659 -0.700576 0.297882 0.922671 -0.244837 0.344764 0.906896 0.242234 0.370377 -0.753529 0.543152 -0.486042 0.866616 0.11287 -0.385139 0.327364 -0.862844 0.428326 -0.895024 -0.124378 -0.434673 -0.784593 0.442124 0.566859 0.470781 -0.676045 -0.361885 0.137547 0.92202 -0.546175 -0.085721 0.833274 0.673399 -0.5182 0.527259 0.484788 0.109287 0.867777 -0.697 -0.494395 -0.519389 0.746717 -0.180753 -0.640111 0.360059 0.191072 0.913154 -0.183278 -0.462869 -0.867273 0.410393 -0.649438 -0.640162 -0.368919 -0.828023 0.422228 0.543359 -0.692501 0.474556 -0.681675 0.696202 -0.224991 -0.514841 -0.437669 0.737146 0.397876 -0.904193 0.155339 0.641207 0.699522 0.315473 -0.148006 0.197584 0.969048 0.687729 -0.380744 0.618113 0.795003 -0.328681 0.509842 -0.440728 -0.0185224 0.89745 0.921093 0.148208 -0.360031 0.12609 0.476888 -0.869873 0.147422 0.97537 0.164072 -0.235803 -0.0639364 0.969695 -0.823458 0.456217 -0.337316 -0.175374 0.984144 0.0265265 -0.776789 -0.58786 -0.225876 -0.762522 0.186976 0.619354 -0.149484 -0.950121 0.273723 0.18487 -0.625159 0.758287 0.0654437 0.352069 0.933683 -0.811886 -0.13999 -0.566784 -0.119426 0.977227 0.175397 0.341162 -0.311757 0.886801 0.182298 0.598513 -0.780096 0.616447 0.781965 -0.0923241 -0.566419 0.815324 -0.120071 -0.234815 0.566455 0.789931 0.331603 -0.248868 0.910002 0.280648 0.87637 0.391423 -0.0422733 -0.964813 -0.259517 -0.874194 0.41831 0.24658 0.735554 0.669829 -0.101441 0.99542 -0.0917422 0.026887 -0.715204 -0.442832 -0.540725 -0.875954 0.119572 0.467341 0.468315 -0.33515 -0.81753 -0.866218 -0.311504 0.390681 0.902858 0.181168 -0.389906 0.78651 -0.455408 0.417139 -0.284263 -0.653827 0.701217 0.792912 -0.0180518 -0.609068 0.890376 0.218583 0.399314 -0.287904 -0.521743 -0.803054 -0.748511 0.117566 -0.652617 0.403448 0.902802 0.148924 0.702858 -0.467426 0.536194 0.337589 -0.938133 0.0770781 0.934728 0.187956 -0.30159 -0.167778 0.9091 0.381297 0.000782777 -0.36623 -0.930524 -0.47453 0.379265 -0.794342 -0.791308 -0.210771 -0.573939 0.686061 0.528312 -0.500207 0.0138891 -0.802516 -0.596468 -0.194006 0.56755 -0.800155 0.278289 -0.735719 0.617472 -0.933108 -0.313838 -0.175539 0.787658 0.258637 0.559198 0.66016 0.610615 -0.437422 -0.470976 0.184283 -0.862682 0.171191 0.931494 -0.320955 0.891992 0.24108 -0.382402 0.7208 -0.690414 -0.0614471 0.846595 0.177151 0.50189 -0.440933 -0.716572 0.540465 -0.751089 0.595781 -0.284446 0.246718 0.580509 -0.775976 0.949751 -0.0340774 -0.311147 -0.642204 -0.742372 -0.190939 -0.312068 -0.813488 -0.490765 -0.110482 0.692598 -0.712813 -0.416466 -0.877992 0.23598 -0.988336 -0.143624 0.0506417 -0.768947 0.637409 -0.0492977 -0.460586 -0.278621 -0.842752 -0.0407863 -0.889845 0.454437 -0.423468 -0.195414 0.884584 0.327589 -0.942921 -0.0598784 0.615446 0.149415 -0.773887 -0.0302264 -0.614055 -0.788685 -0.645673 -0.763471 -0.0147989 -0.612946 0.789883 0.0195686 -0.656127 -0.393184 0.64413 0.00205428 0.976845 0.213939 0.543169 0.333436 0.770577 0.28228 -0.630751 0.722821 -0.260889 -0.964187 -0.0477551 0.165892 -0.983741 -0.0687992 0.93829 0.334334 -0.0884996 0.963385 -0.204515 -0.173388 0.306979 0.948282 -0.0807755 0.390847 0.118966 0.912735 0.55122 0.0054025 -0.834342 0.820519 -0.0658354 0.567815 -0.165083 0.0764435 -0.983313 -0.324434 0.338937 0.883099 0.628952 0.77269 0.0858513 -0.3742 -0.511818 0.773315 -0.894577 0.44678 0.0108874 0.989287 -0.115449 -0.0893412 -0.00478372 0.519788 0.854282 0.186307 0.982425 -0.0114267 -0.441719 -0.818228 -0.36795 0.191091 0.462638 -0.865708 -0.248045 -0.149694 0.957113 -0.0129597 -0.150794 -0.98848 -0.905515 -0.275618 -0.32261 0.146658 0.224781 -0.963309 -0.383483 0.920202 -0.0785402 -0.170473 0.541934 0.82295 0.934111 -0.349592 -0.0722594 0.153333 -0.383726 0.910628 -0.120969 0.653825 -0.746913 -0.825909 -0.413973 -0.382753 0.951168 0.123195 -0.283024 -0.0438109 -0.00438852 0.99903 -0.231692 0.856051 0.462055 0.0717313 -0.170227 0.982791 0.0734238 -0.729795 0.679712 0.723753 -0.00925889 -0.689997 -0.0791961 0.627992 -0.77418 -0.612108 -0.569203 -0.548938 0.864801 0.141339 0.481812 0.478057 -0.242915 -0.84407 -0.520904 -0.17952 0.834525 -0.00587849 -0.0678666 0.997677 0.491827 -0.181663 -0.851531 0.303956 -0.946955 -0.104344 0.920456 0.200816 -0.335311 0.470537 0.647919 0.598996 0.826184 -0.189497 -0.530575 0.849336 0.485698 0.206701 0.0231522 0.675195 0.737276 0.761988 -0.528504 -0.374243 -0.964673 -0.259102 0.0476694 0.0526559 -0.997112 0.0547344 0.00855179 0.23668 -0.97155 -0.929806 0.311637 -0.195814 -0.710368 -0.579812 -0.398993 0.251211 0.334444 0.908317 -0.00778628 -0.992393 0.122866 0.875476 0.482558 -0.0260716 -0.400875 0.877534 -0.263122 0.88215 0.466539 0.0644411 0.307172 -0.773357 -0.554585 0.678279 0.696382 -0.234498 0.774947 -0.0817422 0.626718 0.836495 0.0387298 0.546604 -0.336271 -0.861705 0.379981 -0.265397 -0.321078 -0.909106 -0.586063 0.483116 0.650484 0.370919 -0.26077 0.891301 0.46626 -0.596266 0.653504 -0.66324 0.72441 0.187998 0.457773 0.441745 0.771561 -0.374453 -0.593618 0.712322 -0.852652 0.258624 -0.45398 -0.66445 0.355563 0.657329 0.728601 0.32921 -0.600634 -0.833098 0.540385 0.118033 -0.686135 0.488124 -0.539402 0.737752 0.669997 -0.0826183 -0.846482 -0.27677 -0.454826 0.329655 0.579143 -0.745601 -0.145798 0.814727 -0.561215 -0.194933 -0.793732 -0.576186 -0.440274 -0.330966 0.834638 -0.181738 -0.94935 -0.256333 0.354048 -0.361568 -0.862507 0.451522 -0.436402 0.778255 0.535786 0.587781 -0.606174 0.747017 0.251428 -0.615427 0.548853 0.738915 0.39085 0.821327 -0.564551 0.0818769 -0.249911 0.0311709 -0.967767 -0.563797 -0.682845 -0.464602 0.984015 -0.162235 -0.0734452 -0.660129 0.282019 0.6962 -0.960099 0.132961 -0.246032 -0.29997 -0.149058 -0.942231 -0.0975872 -0.9952 -0.00735147 -0.635659 -0.633969 0.440479 0.646231 0.210724 0.733472 0.980934 -0.190331 -0.0392867 -0.341212 0.19265 0.920033 -0.0220395 0.285658 -0.958078 -0.149714 0.936849 -0.31607 -0.419628 0.165547 -0.892472 -0.269914 -0.771303 -0.576401 -0.877681 -0.399662 0.264472 -0.989215 -0.0179457 -0.145364 -0.993331 -0.107079 0.0427532 -0.173093 0.14038 -0.97485 -0.203269 -0.318033 0.926033 0.675492 -0.737267 -0.0121971 0.184859 0.952023 -0.243884 0.994211 -0.0745623 -0.0773588 -0.279469 0.85109 0.444457 -0.232228 0.699588 0.675756 0.898146 0.438931 0.0259532 -0.991697 0.121694 -0.0415665 -0.232571 -0.397279 0.887739 0.00491326 0.562296 -0.826921 -0.860869 -0.376591 -0.342176 0.673142 0.519196 -0.526607 -0.946128 0.0699097 0.316154 -0.795861 0.53072 -0.291446 -0.346059 0.202527 0.916093 0.379229 -0.564796 -0.732933 0.679642 -0.706728 0.196525 0.975485 -0.190066 -0.110925 -0.109296 -0.899705 -0.422594 0.135068 0.00928973 -0.990793 0.325412 0.0653751 -0.94331 0.148897 0.0650735 0.986709 -0.962126 0.0918138 0.256677 0.162437 0.816732 0.553682 0.0847103 0.857133 -0.508082 0.912157 0.36576 0.184901 -0.523287 0.683043 0.509532 0.309575 -0.120943 -0.943152 -0.118822 0.412784 -0.903045 -0.437115 0.520669 0.733372 -0.778793 0.567879 -0.266449 0.946206 0.255473 -0.198565 -0.205433 -0.774097 -0.598808 0.819149 -0.0610185 -0.570326 0.848751 -0.366142 0.381527 -0.72196 0.603819 -0.3379 -0.174452 -0.961757 -0.211164 0.434757 -0.659306 0.613434 0.029602 -0.305124 0.951853 0.00382947 -0.99958 0.0287417 0.451036 -0.44578 0.773206 -0.943273 -0.316118 0.101513 0.613139 0.0955084 -0.78418 -0.156904 0.852289 0.498984 0.189511 -0.474613 -0.859551 0.22303 -0.897323 0.380878 -0.906328 0.179522 -0.382547 0.202235 0.840693 -0.502332 0.92547 0.330553 -0.185041 -0.683058 -0.671875 -0.286384 -0.926955 -0.347514 -0.141381 -0.049733 -0.53712 -0.842038 -0.990392 -0.118048 -0.0720343 -0.889578 -0.392954 0.232892 -0.810702 -0.290288 0.508424 -0.502258 0.860759 -0.0826413 0.385075 0.422488 -0.8205 0.538354 -0.25739 -0.80245 0.830736 -0.32747 0.450157 0.284498 -0.926216 -0.247355 -0.710115 -0.0884389 0.698509 -0.616195 0.776864 0.129566 0.444847 -0.422477 0.789698 -0.178679 0.813177 0.553911 -0.994514 0.0837142 -0.0627165 0.99322 -0.0566961 0.101483 -0.214961 0.202015 0.955501 -0.979841 0.199158 0.0157552 -0.265393 0.131453 0.955137 0.476787 0.335768 0.812363 -0.406124 -0.894252 0.188086 0.674463 -0.672069 -0.305652 -0.20355 0.409226 0.889439 -0.525766 -0.820991 -0.222587 0.16618 -0.985872 -0.0209938 -0.634145 0.138517 -0.760706 0.957037 0.144671 -0.251298 0.846254 -0.0620124 0.529158 -0.13255 0.837998 0.529329 -0.302463 -0.840213 -0.450064 0.378146 -0.923205 -0.068542 -0.137206 -0.48422 0.864121 0.461082 0.8679 -0.184804 -0.0961337 -0.377173 -0.92114 0.561982 0.494002 0.663429 -0.700596 0.705527 -0.10676 0.828529 0.507041 -0.237592 0.625054 -0.689575 0.365778 -0.85522 -0.415032 0.310399 -0.494065 0.721649 -0.484895 -0.33849 0.301863 0.891237 0.595983 0.799828 0.071275 0.724855 -0.59204 -0.352241 0.679652 0.21492 0.701343 -0.60499 -0.241146 -0.758839 0.444004 -0.723689 0.528332 -0.171971 0.669831 0.722324 -0.798461 0.209809 0.564304 0.372077 0.654876 0.657796 0.220431 -0.482275 0.847833 -0.924802 -0.329982 0.189351 0.99346 -0.0563698 0.099293 0.822507 -0.369071 0.432745 -0.094875 -0.825117 0.556939 -0.533101 0.655392 -0.535036 0.491862 -0.678662 0.545427 -0.863743 -0.475014 -0.168254 0.833309 0.484003 -0.267092 -0.569129 0.354653 0.741831 0.312008 -0.928145 0.202971 -0.146216 0.0541441 -0.98777 -0.723791 0.680076 -0.116723 0.46883 -0.496367 0.730629 -0.306904 0.796647 0.520734 0.377948 -0.528458 -0.760189 0.712332 -0.356827 0.604365 -0.771139 -0.514493 0.375022 0.607914 -0.595088 0.525652 0.692726 -0.482373 -0.536141 0.609193 0.728842 -0.312526 0.743745 -0.618976 0.252413 0.500899 0.5016 -0.705335 -0.857374 -0.38738 0.33889 -0.696978 0.549647 -0.460554 0.531832 0.0285727 0.846367 0.253173 -0.850845 0.460397 -0.27866 -0.879418 -0.38597 -0.601663 -0.48596 -0.633912 0.049148 0.991093 -0.123773 -0.5275 0.136382 -0.838537 0.502953 -0.72418 0.471807 0.977247 -0.146289 0.153585 0.669005 -0.0928533 -0.737435 -0.727168 0.596274 0.340123 0.45219 -0.00853087 0.891881 0.985792 -0.157169 0.0592606 -0.411394 0.802872 -0.431453 -0.858023 -0.444888 0.256654 0.875893 0.326398 0.355353 -0.652439 0.0984394 -0.751421 0.28474 -0.176475 -0.942221 0.383468 -0.499036 0.77712 -0.100321 -0.47434 0.874607 -0.819316 -0.573269 0.0091328 0.574778 0.745421 0.337606 0.716814 0.483648 -0.502257 -0.0655278 0.505936 0.860078 -0.641106 0.746559 0.177855 0.132094 -0.930287 -0.342223 -0.657502 0.0189651 -0.753214 -0.897688 -0.28817 -0.333339 0.398812 0.709078 0.581513 -0.832481 0.550244 -0.0648532 -0.777009 0.00848547 0.629432 0.37866 0.474077 -0.794901 -0.612093 0.70992 -0.34836 -0.869259 -0.412389 0.272626 0.604386 0.606371 0.516751 0.833488 0.498808 0.237673 -0.584953 0.809008 -0.0577558 -0.12425 0.978405 0.165183 -0.638639 0.524921 -0.562671 0.320825 0.940853 0.108939 -0.603541 0.746755 0.279453 0.883126 0.103402 -0.457598 -0.782145 -0.432159 -0.448874 -0.237717 0.709868 0.663006 0.480934 0.536062 0.693787 -0.493801 0.783455 -0.377304 -0.289319 -0.248916 -0.924303 -0.243986 -0.955727 -0.164489 0.139507 0.728476 -0.670716 -0.611033 0.395307 -0.685836 -0.807726 -0.571752 0.143798 0.64008 0.0934218 -0.762607 -0.818313 0.511256 0.262643 -0.425123 -0.16012 0.89086 0.393189 -0.671375 0.628218 0.594095 -0.490877 0.637253 0.217012 0.936108 0.276781 -0.719807 0.173847 -0.672053 0.