# vtk DataFile Version 4.0
Generated by libgran
ASCII
DATASET POLYDATA
POINTS 1686 FLOAT
-30.1012 1.17741 5.98383 -29.0293 0.986322 7.57613 -30.3899 0.788657 4.26626 -29.8005 2.12697 5.29728 -31.1191 0.573432 8.47919 -30.8039 0.972606 3.04921 -29.9757 0.482474 12.2797 -29.926 -1.08503 13.0906 -30.2474 1.0331 11.1003 -29.7583 -0.178472 9.87772 -29.6591 1.55071 9.75533 -28.7752 1.68863 8.79704 -29.9653 -2.16028 15.9122 -28.9868 -1.98314 15.0294 -29.0132 -0.854669 14.8281 -28.3149 0.623954 14.1956 -27.6879 1.06405 14.8385 -27.7447 1.36783 13.3547 -31.2271 -3.25617 13.9514 -33.4732 -3.50054 15.171 -32.3056 -3.20491 14.6078 -32.7086 -3.08627 16.3055 -34.1829 -4.10109 14.2136 -32.2016 -3.22126 17.3978 -32.3951 -1.78027 17.5485 -32.7072 -1.17814 18.5461 -31.4222 -1.08058 18.8437 -31.2467 -2.22649 21.6646 -32.0504 -1.06402 22.29 -31.43 -1.33763 20.5662 -31.3772 -3.51103 21.9824 -32.5836 -4.71655 21.3735 -31.6999 -1.01416 23.9362 -30.6785 -2.04925 19.3816 -32.0016 -4.97924 19.3145 -32.8593 -5.98703 18.7775 -30.7708 -5.44361 19.1209 -29.696 -5.71134 19.0703 -29.1303 -4.90052 20.5863 -29.8469 -4.51052 22.1283 -28.5712 -3.61319 21.0459 -32.2953 -7.37019 19.5161 -24.2129 -10.2531 21.3707 -25.1341 -9.60544 20.6637 -26.429 -10.4628 20.4075 -25.2405 -10.4084 23.5436 -26.3029 -10.2865 22.565 -27.8833 -11.3571 20.3436 -29.5781 -8.41269 18.2565 -28.4781 -7.73717 17.7039 -29.1345 -9.64716 18.4742 -30.657 -9.46216 18.8453 -28.4615 -10.8422 19.323 -31.5004 -8.68639 19.8967 -27.4493 -8.79067 16.5779 -27.3312 -9.76244 15.1909 -26.4101 -11.9956 15.3915 -25.9657 -11.504 14.2384 -27.2241 -10.8264 14.3866 -25.3263 -11.5734 16.6704 -24.1473 -10.9332 14.2269 -23.8025 -11.3008 17.2057 -23.5512 -12.3941 17.0472 -23.3261 -8.27785 11.3498 -24.2394 -8.78386 10.8614 -24.8192 -7.68934 11.9967 -22.0815 -8.23514 11.8157 -21.8033 -8.39084 10.1907 -22.0594 -8.58121 13.6476 -22.8276 -9.70444 14.5408 -36.314 13.3726 1.30025 -35.8905 12.8795 -0.574582 -35.4687 11.9776 -0.667629 -35.8745 14.1593 2.61653 -35.546 14.1862 3.66317 -34.7914 14.8075 3.87416 -35.1267 14.1734 4.57091 -38.4142 11.2403 -1.80674 -39.243 11.6459 -2.7632 -37.8879 12.8668 -2.05918 -37.8218 11.1178 -0.874108 -38.0276 9.49872 -1.59563 -38.3843 8.23103 -1.29374 -38.8115 6.89499 -0.792603 -42.6493 6.44661 -2.74665 -42.3012 5.69476 -3.57813 -43.3494 7.71498 -3.62967 -42.9414 7.80099 -1.30568 -39.4746 6.15665 -1.19402 -38.0663 5.5452 -1.68845 -38.0599 5.88181 -2.97118 -37.363 5.11143 -3.44788 -37.4937 4.21012 -2.15416 -38.0734 7.4407 -3.78795 -39.2874 6.10916 -3.88666 -37.8665 7.9336 -5.01587 -37.0367 2.86589 -2.67499 -37.8553 2.54629 -1.31345 -36.6397 4.84874 -9.94657 -35.567 4.86933 -10.732 -36.2105 3.19515 -10.7381 -37.1732 6.34187 -11.6421 -37.6129 5.6621 -12.3408 -38.4359 6.2121 -10.7212 -38.4591 5.06471 -13.27 -38.8756 5.53233 -11.4198 -36.7984 1.48696 -10.7395 -38.6338 6.43652 -8.57131 -39.0432 6.34636 -9.8444 -39.0069 6.28914 -7.41155 -39.5801 5.91768 -6.51833 -40.4197 5.33799 -6.0551 -39.7622 5.30509 -5.21624 -41.6636 6.45264 -6.53069 -40.7162 6.34022 -4.20107 -33.8114 1.80461 -12.6029 -32.4266 2.38117 -13.424 -32.9477 0.921451 -12.213 -34.4858 2.90148 -12.2709 -35.0514 4.03483 -12.718 -36.6029 3.54405 -12.9888 -33.1406 -0.739075 -11.9402 -37.4069 2.88926 -13.7473 -36.0068 -1.94741 -9.81722 -35.6361 -0.64546 -9.83227 -36.8688 -0.211031 -10.2496 -34.6991 0.727264 -9.94372 -26.1739 12.6494 19.0867 -26.5348 13.7279 19.7756 -24.9549 13.4791 19.6878 -27.3841 12.2501 17.7245 -29.2379 13.2105 18.5401 -30.1011 10.9863 16.7763 -29.6413 12.4015 15.6427 -30.96 10.065 16.5433 -30.7718 9.27926 17.2669 -28.8252 12.0336 15.1968 -32.6669 9.99973 16.3793 -31.2415 10.1216 15.1016 -33.5675 9.97116 17.8058 -26.0036 5.35838 11.8756 -25.655 4.27752 11.9308 -26.4872 6.56827 12.1409 -27.8789 5.63072 12.4038 -26.8876 3.48676 12.9654 -26.7408 2.9319 11.5772 -27.0758 2.93137 14.4202 -26.4274 2.16149 10.4106 -26.3891 2.27004 9.34273 -29.9794 9.53555 14.4893 -30.9442 9.46503 13.5771 -28.6409 9.41152 14.1099 -30.6338 7.94443 12.6987 -31.9395 9.1546 12.3963 -30.9453 6.63124 12.6783 -29.464 6.35866 12.5996 -32.0692 5.94304 4.40807 -32.7199 5.21692 3.50405 -32.0783 6.81891 5.20268 -31.1494 5.39248 5.73475 -34.1702 3.94544 3.65658 -32.1285 3.25275 5.34729 -35.2748 3.97105 2.86648 -34.7064 4.12653 1.47103 -37.0708 1.71671 0.932084 -35.525 1.92394 1.43224 -38.1729 1.81678 0.196951 -37.8227 1.40963 -1.55983 -34.8382 3.66739 0.547633 -35.0152 1.44955 2.81689 -31.5946 6.08263 10.3994 -31.2105 8.48304 9.44421 -32.7171 8.52957 10.3351 -33.0948 8.80821 11.3379 -33.7296 7.64638 11.6575 -32.4763 10.4947 11.6713 -34.0097 6.2716 12.2229 -32.7452 2.79198 7.91828 -32.4971 2.97942 9.21106 -31.6392 3.00927 6.28271 -32.193 3.58928 10.4308 -26.0471 22.9461 27.4003 -26.7024 21.7493 27.8521 -26.2333 22.4746 28.9573 -25.6915 23.0924 26.1274 -25.872 24.5932 26.7585 -26.4318 25.8838 26.8184 -23.2488 22.7012 27.4924 -23.0361 22.8487 29.8233 -23.8425 23.581 30.9571 -22.7231 22.5935 28.5565 -22.2812 22.2259 27.6063 -23.7166 24.6291 28.0542 -23.8694 23.6883 32.1893 -25.3667 26.9557 32.3103 -24.8946 27.8623 33.1636 -25.757 28.8605 32.4102 -25.7426 26.3838 31.4382 -24.8961 25.5422 31.2156 -23.2792 28.1767 34.238 -25.7059 24.8074 30.4873 -21.123 24.7636 34.0862 -21.5055 23.499 34.2362 -20.8291 25.8249 34.1187 -19.7579 26.2786 34.9872 -20.656 27.2599 34.5627 -18.3065 25.7177 35.7528 -18.2584 26.9752 35.4046 -21.5052 28.3356 34.4292 -19.5595 28.2151 34.1022 -28.3101 23.6456 32.0669 -28.4367 25.9274 32.4752 -30.7943 25.1677 34.3844 -30.7999 24.0569 33.4964 -30.391 23.3733 31.7691 -27.057 23.189 32.0327 -32.3351 21.4856 29.6804 -32.883 22.3994 31.1185 -31.107 21.0629 29.3898 -30.285 20.6187 29.0337 -32.9064 23.4222 32.3998 -33.8452 23.1558 32.1816 -35.5058 23.9301 31.8934 -36.1698 24.0041 30.5468 -35.8837 23.0951 30.0681 -36.8668 25.5498 29.7377 -37.4892 25.3949 31.335 -37.7553 26.1847 30.3375 -37.0428 23.317 31.819 -37.4877 26.3502 32.9547 -37.3609 27.4375 31.0871 -41.3444 27.5286 34.0652 -40.5736 28.5345 33.6629 -39.7264 27.6307 33.2097 -38.3347 27.379 33.0128 -41.0978 27.8906 31.908 -37.1748 27.4102 32.7265 -37.7094 11.5799 19.5575 -38.2924 10.6612 20.3209 -39.2 12.209 19.9322 -36.2734 10.9709 19.0219 -36.9444 12.5488 18.7686 -35.3113 9.37325 19.0387 -34.3931 8.36921 18.5304 -34.8696 7.73487 17.7058 -33.2402 7.60946 18.0751 -35.4402 6.77156 16.9885 -35.9365 6.49369 18.307 -31.6888 5.6201 18.0161 -31.0425 6.51705 17.7701 -41.7356 13.7914 18.1258 -42.7291 13.3312 18.8801 -43.9333 13.3605 17.7877 -41.584 15.2589 18.3722 -42.6942 15.3737 17.4143 -40.5756 10.8819 16.7598 -40.4105 12.458 17.4442 -40.3725 10.3904 17.7493 -40.1121 9.84544 18.5464 -38.2935 9.60527 18.2471 -39.6304 8.97899 19.2511 -30.1783 16.4815 21.2402 -31.3706 16.6428 21.8062 -30.4034 16.1663 23.0983 -29.1792 15.7835 20.6449 -29.9741 15.7469 19.5046 -32.2924 17.524 21.9706 -31.8982 18.406 23.4413 -30.9407 18.9157 25.0459 -34.3309 12.4331 17.8495 -33.6661 11.9574 18.87 -32.5204 12.6856 18.1899 -34.9385 13.5368 17.4237 -36.2207 12.9911 17.9562 -31.4693 12.4745 19.1203 -31.0735 13.3897 19.1956 -29.7369 20.1371 25.6442 -29.9053 18.5928 25.3315 -30.7701 20.2609 27.7271 -32.0235 20.4689 26.4983 -29.8226 17.0359 25.4276 -29.4139 15.7833 26.2868 -31.4435 20.7825 24.2046 -32.5856 20.233 25.0857 -31.1946 22.0621 24.4669 -32.6323 22.9435 24.1039 -34.2576 22.8618 24.1287 -34.0676 24.3203 22.5416 -6.05225 21.6544 37.7897 -5.06513 21.5423 37.9037 -7.33203 21.2912 37.8666 -5.59282 20.8523 37.4082 -8.03068 22.505 38.8974 -8.9317 21.0926 38.3638 -8.90344 22.184 38.5297 -8.85001 23.0711 38.9881 -4.93696 19.8082 37.6699 -3.82959 20.3777 37.0062 -4.63741 18.1004 37.8175 -9.88984 20.2589 37.3438 -5.7972 16.4761 39.2574 -5.91187 17.2736 37.9476 -6.53393 15.2693 39.5557 -6.9052 14.2854 39.9431 -4.11573 17.5009 38.7957 -1.14329 21.5887 37.9074 -2.30493 21.7179 37.2734 -2.49363 20.4978 37.1638 -0.0885469 23.1326 37.7427 -2.30679 23.3592 36.9264 -2.73049 19.264 37.0657 -2.40787 25.1286 37.3141 0.336529 27.5133 37.397 1.19848 26.3039 38.1011 -2.49455 26.7817 37.0019 2.08811 25.8239 37.2127 -3.13644 26.1266 38.4417 -20.13 30.3221 41.7658 -18.9893 29.6933 41.4983 -20.2682 30.3019 43.4624 -21.4713 29.9688 42.004 -18.0041 28.3457 43.9383 -18.4042 28.7334 45.4842 -17.4681 27.6588 42.44 -15.2075 26.5791 40.5535 -16.0194 26.4789 41.6016 -14.412 25.1382 40.3836 -17.0813 26.4667 41.7814 -17.0619 25.3097 42.7301 -16.1996 24.748 42.1556 -13.2476 24.999 41.1912 -14.0999 24.5837 41.8259 -17.0133 24.4158 44.0473 -11.5968 21.3108 41.841 -12.7883 21.7618 42.2291 -11.4085 21.784 40.9804 -10.6624 21.3525 41.4874 -12.977 22.7311 43.303 -13.4808 21.7313 44.092 -13.4802 24.2332 43.1385 -10.529 22.8231 40.6703 -15.0756 24.2938 42.5498 -10.0371 24.8661 38.6031 -9.50882 23.6745 38.3045 -10.6817 24.477 39.9658 -10.6839 25.4583 40.1586 -11.5947 25.1032 38.6395 -10.5862 24.8019 40.9067 -18.6285 33.4656 39.1738 -18.5921 34.4402 37.5363 -17.6203 33.7374 39.9978 -17.2813 35.2908 39.7314 -17.085 35.0409 40.6796 -17.4916 35.9304 40.4709 -17.3021 37.0187 39.9076 -18.4911 34.0871 36.4877 -19.0897 35.5751 37.0249 -16.451 36.2139 41.3689 -17.3505 38.8546 43.8384 -19.0306 38.8981 43.0987 -19.1746 39.4298 44.1258 -19.293 38.2408 41.6809 -20.7121 38.5161 42.754 -17.8698 37.8482 40.5936 -16.2615 37.3023 40.8056 -18.8701 40.9354 45.76 -17.4424 41.2954 44.7047 -18.6258 40.2272 46.8585 -19.7546 40.0288 45.4203 -17.1978 41.3773 43.4649 -16.0071 41.8399 44.4418 -19.6323 37.84 47.527 -21.3083 36.8306 50.2396 -20.3382 37.7344 50.1393 -21.2818 38.6995 50.7561 -19.2819 37.382 49.0508 -17.5705 37.8396 49.279 -21.9105 39.6961 50.5196 -16.4485 26.4271 38.2715 -15.7641 26.0745 37.1875 -15.7521 27.4647 37.0176 -15.6789 24.5111 37.1654 -16.7933 27.9091 36.015 -14.6905 23.8641 38.3286 -13.1439 24.5367 38.4782 -18.1591 28.0022 34.9232 -18.2373 29.1562 33.7408 -17.6295 28.3632 33.6994 -17.3047 29.2586 33.3949 -18.4257 30.269 35.4314 -18.1491 29.669 36.4828 -21.2254 29.0865 36.401 -21.5081 30.3484 35.3569 -21.0197 32.4188 40.9383 -22.713 31.994 40.9888 -20.5118 31.497
[...]
POINT_DATA 1686
FIELD FieldData 1
normals 3 1686 double
-0.332788 0.211495 -0.918979 0.739074 0.0204042 0.673315 0.0441094 -0.60025 -0.798595 0.633436 0.738063 0.232426 -0.469757 0.84021 0.270879 -0.458175 0.7842 -0.418457 -0.461046 0.852834 -0.245175 -0.411412 -0.714665 0.56568 0.189263 -0.302205 -0.934265 0.299883 -0.909369 -0.288301 0.399052 0.819814 -0.410685 0.484914 -0.6819 -0.547604 -0.349684 -0.822366 0.448815 0.628755 -0.645234 -0.433982 0.60237 0.483241 -0.635317 0.0959554 0.995382 0.00283093 -0.531042 0.555282 -0.640044 0.474216 -0.251505 -0.843721 -0.851645 0.475625 -0.220188 -0.94085 0.128741 -0.313413 0.22679 0.42437 -0.876628 -0.176198 0.543015 0.821029 0.231152 -0.729292 -0.643974 0.683138 -0.678005 0.27135 0.489668 0.762979 0.422006 -0.801791 -0.160843 0.575552 0.483234 -0.0632856 0.873201 0.674393 -0.695091 0.249082 -0.129329 0.467378 0.874547 0.491075 0.193767 -0.849294 -0.804873 -0.589449 0.0687607 -0.401492 -0.616062 -0.677696 0.479919 -0.417511 0.771597 0.260508 -0.905379 -0.335298 0.813411 0.009765 0.581608 -0.0442704 -0.998024 0.0445957 0.41738 -0.474134 -0.775236 0.657475 0.206405 0.724654 -0.0917411 0.604413 0.791371 -0.624936 -0.214413 0.750654 0.650802 0.682915 -0.331789 0.608243 -0.385136 0.694054 -0.309709 0.950529 0.0239993 -0.611444 -0.302822 -0.73105 -0.68343 -0.554495 0.474826 0.136312 0.254618 0.957387 -0.92614 0.376579 -0.0212925 -0.770932 -0.339854 -0.538667 -0.422134 -0.89417 -0.149209 0.677903 -0.218647 -0.701884 0.865783 -0.340306 0.366895 -0.656739 -0.1553 0.737954 -0.192768 -0.854743 0.481929 -0.18667 0.931068 0.313474 0.350922 -0.834857 -0.424107 -0.232795 -0.136915 -0.96284 0.474223 -0.242203 0.846434 0.918584 0.249401 -0.306599 -0.339827 0.927039 -0.158484 0.609532 0.664422 0.43245 0.899807 0.32142 0.295018 0.914284 -0.391795 0.102864 0.663011 0.701516 0.261328 0.874195 0.172894 -0.453753 -0.0390166 -0.333117 -0.942078 -0.618834 0.761397 0.19318 0.370421 -0.130188 0.919695 0.648652 -0.285891 -0.705349 -0.348258 -0.21588 0.912202 -0.419943 -0.907352 -0.0189599 -0.2243 0.125614 0.966391 0.199192 -0.367491 -0.908445 -0.222613 0.534386 -0.815399 0.663784 0.661039 0.349883 -0.335282 -0.634128 0.696755 0.419322 -0.0127936 0.907748 0.754603 0.621335 0.21099 0.0480425 -0.852825 0.519982 -0.78068 -0.447244 -0.436475 0.574402 0.773617 0.267541 0.544409 0.730301 0.412648 0.338573 -0.888799 -0.308876 -0.69527 -0.378888 0.610772 0.268044 -0.957148 -0.109639 -0.739831 0.667438 -0.084714 -0.391737 -0.0844139 -0.916197 0.0397004 0.600934 -0.798312 -0.690845 0.713238 -0.118426 0.931125 -0.218801 0.291773 -0.477187 0.392648 0.786206 -0.47079 0.729261 -0.496523 0.22613 -0.0411226 -0.973229 0.0954532 -0.942429 0.320495 0.457338 0.829626 -0.320253 -0.756673 -0.501913 -0.418961 -0.250515 -0.336724 -0.907667 0.361555 -0.401807 -0.841326 -0.457113 -0.721403 0.520217 -0.53932 0.736533 0.408233 0.533393 0.757128 -0.37716 -0.110058 -0.917054 -0.383275 -0.546128 0.516812 0.65928 -0.985846 -0.162956 -0.0394048 -0.716569 -0.646578 0.261659 0.13968 -0.434437 -0.889806 -0.276846 0.0331897 0.960341 -0.477829 -0.791141 0.381806 0.300009 -0.690676 0.657998 -0.109314 -0.780835 -0.615099 -0.673105 0.543296 0.501756 0.0998902 -0.914755 0.391465 -0.939456 0.335069 0.0717665 -0.281895 0.302163 0.910622 -0.304405 0.779577 -0.547355 -0.672174 0.732974 0.104552 -0.952496 0.13822 0.271379 0.432287 0.714783 -0.54974 -0.088759 -0.744938 0.661203 0.278073 0.958647 0.0605934 -0.843661 0.174703 -0.507655 -0.707847 -0.665482 0.236826 -0.104204 -0.915589 -0.388379 -0.0961701 0.0106971 -0.995307 -0.454667 0.829531 -0.324278 0.825347 0.472419 0.309229 -0.407354 0.906848 -0.108122 0.11171 0.900305 -0.42068 -0.352504 -0.396016 -0.847887 -0.713361 0.682519 -0.159009 0.866595 0.433738 -0.246748 -0.857616 -0.00322729 -0.514281 -0.575655 0.186404 -0.796163 -0.0527305 -0.932022 0.358545 0.407103 0.483185 -0.775113 -0.80616 0.0106608 -0.591601 -0.617982 -0.775035 0.131982 -0.408924 0.851109 -0.329233 -0.900779 -0.0758913 0.427596 0.524609 0.0459723 -0.850101 0.00022254 0.0473233 0.99888 -0.922401 0.312131 0.227488 -0.573712 -0.768721 0.282705 0.438847 0.897767 0.0377796 -0.952885 -0.0397837 0.300712 -0.658914 -0.0220411 0.751895 -0.51209 -0.576907 -0.636351 0.470656 -0.533346 0.702869 0.825482 -0.193503 -0.530223 -0.787213 0.302058 -0.537639 0.737574 -0.632015 0.237787 -0.227304 -0.702533 -0.674374 0.600837 0.507988 -0.617206 0.537718 -0.818063 -0.204042 -0.767977 0.392104 -0.506425 -0.849188 -0.495135 0.183634 0.632141 -0.767717 0.104925 0.0930491 -0.0993921 0.990688 -0.557689 -0.825513 0.0866665 -0.102139 0.975255 -0.196075 0.826773 -0.451168 0.335997 -0.892619 -0.445975 0.065868 0.994606 -0.0296573 0.0993968 -0.21195 0.471588 -0.855968 0.780404 -0.316111 -0.539485 -0.962546 0.0919498 0.255049 0.583237 0.299176 0.7552 -0.139548 0.00811404 -0.990182 0.48977 -0.415263 -0.766604 0.912225 0.143031 0.383911 -0.0733946 -0.773565 0.629452 0.291272 -0.683484 0.669335 -0.741609 0.506392 0.43998 -0.764993 -0.459853 0.450911 0.387287 0.738492 0.551941 -0.247521 -0.423338 0.871504 0.231145 0.948037 -0.218627 -0.0325978 -0.951445 -0.306087 0.600598 0.00346613 -0.799544 0.848692 0.190902 0.493232 0.505312 0.213824 -0.836026 -0.544663 0.418961 0.726508 -0.19637 0.718945 -0.666751 -0.851694 -0.477919 -0.214969 -0.382604 0.247383 0.890178 0.551942 -0.572672 -0.606141 0.371474 0.92811 0.024879 -0.931309 0.362535 0.0351008 0.811422 0.491554 0.316178 0.0272522 -0.85434 -0.519 -0.779234 -0.122078 0.614729 0.285736 0.599181 -0.747888 0.156153 -0.966793 -0.202305 -0.336341 -0.419784 -0.843004 0.752387 0.229374 0.617496 0.317715 -0.917303 -0.240026 0.789853 -0.0106789 0.613203 -0.0725616 0.987469 -0.140143 -0.693628 0.345418 -0.632113 0.152961 -0.496155 -0.854654 0.825559 0.325064 0.461287 -0.962844 -0.23872 0.126267 0.219913 0.53587 -0.815158 -0.162586 -0.728804 -0.66514 0.0740214 0.52541 0.847624 0.997202 -0.0717623 0.0209552 0.0991295 0.909568 -0.403559 0.454233 -0.489137 0.744592 0.502322 0.768435 0.39646 -0.948392 0.166149 0.270088 0.997334 0.0456553 -0.056918 0.485543 -0.566806 -0.665566 0.847682 -0.284376 -0.447845 -0.0416044 -0.993663 0.104422 0.0360587 -0.117058 -0.99247 0.372787 -0.566604 -0.73484 0.76755 0.110223 0.631441 0.328034 -0.821137 -0.467041 -0.219894 0.0926618 0.971113 0.900031 0.398473 0.176531 -0.0779847 -0.84273 -0.532659 0.196505 0.930153 0.310162 -0.742318 0.663709 0.0919491 -0.91828 0.110606 -0.380168 -0.254343 0.0366002 0.966421 0.0317304 -0.872402 0.487759 -0.703849 -0.347713 0.619429 0.0814627 0.192752 0.97786 -0.184645 0.98261 -0.0196079 -0.618645 -0.723693 0.305855 -0.0799883 0.762602 0.641904 0.579065 0.27015 0.769222 -0.993333 -0.0877391 0.0747766 -0.222529 0.918231 -0.327615 0.624682 0.0144291 -0.780746 0.767008 -0.266163 0.583829 -0.524486 -0.756928 0.38984 0.392947 0.297408 -0.870139 0.962884 0.198377 -0.183031 0.379846 -0.720336 0.580374 -0.527753 0.827498 0.191635 0.473085 -0.807392 -0.352576 -0.197958 0.770552 -0.605856 0.48897 -0.790265 0.369311 0.429251 -0.213776 -0.877521 -0.905723 -0.420559 0.0528778 0.723662 -0.545976 0.422164 0.335112 -0.542752 -0.770143 -0.161174 -0.820622 0.548272 0.121153 0.375735 -0.918774 0.525093 0.521215 0.672764 -0.101774 -0.0751449 0.991965 -0.891779 -0.385059 -0.237614 -0.31243 0.414393 -0.85479 -0.983671 0.177081 0.0321521 -0.126561 -0.0623086 -0.99 0.90913 -0.0885276 0.406996 -0.13327 -0.103237 0.985688 -0.705938 -0.402946 0.582482 0.966326 -0.142035 0.214571 0.852233 -0.0981416 -0.513875 -0.484708 -0.724415 0.490184 0.272617 -0.112661 -0.955504 -0.919749 0.0486634 -0.38948 0.0474908 -0.427853 0.9026 0.72643 -0.585256 0.360243 -0.0684325 -0.621932 -0.780075 -0.00204059 0.832594 0.55388 0.396237 0.0493671 0.91682 0.561289 0.460347 0.687775 -0.968117 0.229705 -0.0999275 -0.303362 -0.245977 0.920579 0.842397 0.482186 0.24055 0.360536 0.873993 -0.325807 -0.921702 0.328283 0.20663 0.208623 -0.693287 0.689805 0.604439 0.221951 0.765109 0.642541 0.761006 -0.0895061 0.474106 -0.783258 -0.402159 0.407075 -0.485013 0.773985 -0.846389 -0.277106 -0.454793 -0.391446 -0.773644 0.498242 0.800211 -0.478952 0.360925 0.857728 0.50834 0.0767711 -0.28434 -0.041225 0.957837 -0.608872 0.771259 0.185563 -0.828796 0.110072 -0.548617 -0.796481 -0.191711 0.573467 -0.46456 -0.678119 -0.569507 -0.527695 -0.689961 -0.495472 0.459432 -0.802129 -0.381458 -0.752083 0.326717 0.572388 0.987127 -0.11217 0.114013 0.0534366 0.887125 0.458426 -0.847588 -0.525302 -0.0751801 -0.819328 0.566106 0.0906925 -0.872765 -0.321019 -0.367733 -0.331268 -0.931908 0.147679 0.776103 -0.362454 -0.516033 0.63082 -0.775929 -8.25784e-05 -0.110545 -0.308381 -0.944818 0.221012 -0.920219 0.323035 0.106346 -0.122742 -0.986724 -0.957734 -0.286594 -0.0246783 0.586464 -0.697334 0.41205 -0.109133 0.17638 0.978254 0.790488 0.608461 0.0700223 -0.371148 0.737648 -0.564025 -0.559855 -0.48252 -0.6736 0.264256 0.93544 -0.234778 0.369284 0.903604 0.217093 0.323 -0.751281 0.575542 -0.470362 0.86583 0.170583 -0.463068 0.301519 -0.833459 0.398888 -0.907833 -0.129335 -0.383684 -0.787215 0.482784 0.490737 0.427824 -0.759041 -0.258213 0.132195 0.957001 -0.59226 -0.0112859 0.805668 0.548437 -0.640008 0.538152 0.454082 -0.00887437 0.890915 -0.749003 -0.342015 -0.567469 0.742408 -0.267799 -0.614096 0.342363 0.119849 0.931893 -0.206406 -0.419187 -0.884126 0.343301 -0.684708 -0.642899 -0.46867 -0.784951 0.405217 0.452165 -0.756204 0.472972 -0.593201 0.772838 -0.225463 -0.573807 -0.384183 0.72329 0.288517 -0.945852 0.148732 0.712242 0.61705 0.334607 -0.140107 0.201687 0.969377 0.622468 -0.509737 0.593887 0.74614 -0.431484 0.507047 -0.44527 0.0194718 0.895185 0.934476 0.0416376 -0.353584 0.188335 0.473121 -0.860631 0.256556 0.94987 0.178676 -0.24728 -0.0499856 0.967654 -0.759817 0.552176 -0.343189 -0.0549744 0.997538 0.0435302 -0.835512 -0.491578 -0.245501 -0.742244 0.267273 0.614523 -0.213953 -0.924358 0.315889 0.0976841 -0.656363 0.748094 0.09545 0.324865 0.940932 -0.815379 -0.0301538 -0.578142 -0.00223396 0.981228 0.192838 0.26271 -0.392205 0.881566 0.299143 0.582347 -0.7559 0.745537 0.66397 -0.0576139 -0.406576 0.889454 -0.208729 -0.210279 0.639547 0.739434 0.196297 -0.249906 0.948164 0.3858 0.838451 0.384914 -0.198117 -0.935435 -0.292766 -0.796791 0.552589 0.244477 0.844331 0.533474 -0.050118 0.948113 -0.298994 0.108089 -0.731968 -0.255576 -0.631588 -0.875977 0.276145 0.395486 0.469562 -0.401639 -0.786256 -0.949597 -0.126422 0.286849 0.953563 0.00898096 -0.301059 0.654829 -0.554882 0.513133 -0.588607 -0.583712 0.559305 0.839055 -0.223699 -0.495928 0.832907 -0.124455 0.539238 -0.295919 -0.322893 -0.898984 -0.594371 0.305524 -0.743894 0.59628 0.768217 0.233008 0.419211 -0.714818 0.55973 0.0175388 -0.999552 -0.0242699 0.987594 -0.0956794 -0.124511 0.0440656 0.869323 0.492277 0.0687874 -0.256773 -0.964021 -0.181066 0.589443 -0.787256 -0.672819 0.127354 -0.728763 0.77493 0.427794 -0.465269 -0.0904889 -0.780381 -0.618722 -0.0784907 0.609866 -0.788608 0.175642 -0.783026 0.596675 -0.962733 -0.16546 -0.213935 0.812769 0.136079 0.56647 0.73382 0.536434 -0.416829 -0.40306 0.258549 -0.877892 0.324838 0.895403 -0.304521 0.932669 0.102415 -0.345889 0.607831 -0.792988 -0.0413682 0.843248 0.0427291 0.535824 -0.566633 -0.642679 0.515646 -0.642241 0.708314 -0.292947 0.35949 0.553535 -0.751243 0.938761 -0.18609 -0.289996 -0.754589 -0.61091 -0.239551 -0.430847 -0.73553 -0.522845 0.0238449 0.721477 -0.692028 -0.572917 -0.797486 0.189163 -0.999114 0.0411782 0.00866964 -0.64907 0.759572 -0.0419433 -0.480718 -0.170988 -0.860042 -0.201114 -0.883419 0.423231 -0.471447 -0.147551 0.869463 0.16527 -0.98252 -0.0856702 0.650106 0.066384 -0.756938 -0.114497 -0.575977 -0.809408 -0.764603 -0.642362 -0.0524717 -0.612865 0.790031 -0.0157364 -0.762119 -0.450028 0.465456 -0.0216412 0.968517 0.248006 0.309046 0.365207 0.878131 0.143459 -0.615572 0.774913 -0.165587 -0.980779 -0.103218 0.284041 -0.955938 -0.0741883 0.937402 0.347273 -0.0260693 0.995736 -0.0912114 0.0138286 0.205398 0.978053 0.0349925 0.189251 0.0879053 0.977986 0.692216 0.0516164 -0.719843 0.702962 0.0470488 0.70967 0.0141089 0.135992 -0.990609 -0.520751 0.233841 0.821059 0.505401 0.846479 0.167459 -0.409998 -0.396481 0.821404 -0.800826 0.598223 0.0284112 0.920126 -0.351274 -0.173132 0.0401292 0.421646 0.905872 0.357226 0.9282 0.104091 -0.656811 -0.653844 -0.375616 0.317097 0.506554 -0.801781 -0.322822 -0.199518 0.925191 0.0149917 -0.0437724 -0.998929 -0.90542 -0.0934788 -0.414097 0.262086 0.293231 -0.919416 -0.236327 0.971621 0.0101118 -0.17305 0.462869 0.869371 0.847869 -0.523242 -0.0856463 0.140041 -0.451976 0.880969 -0.140945 0.586382 -0.797678 -0.759818 -0.518983 -0.391577 0.94937 0.19759 -0.244245 -0.0990287 0.0590773 0.993329 -0.363725 0.84868 0.383987 0.0325701 -0.0951812 0.994927 0.105066 -0.65499 0.748297 0.687362 -0.0887114 -0.720878 -0.190596 0.578795 -0.792887 -0.296753 -0.734058 -0.610816 0.705636 0.412324 0.576253 0.644587 -0.0465195 -0.763114 -0.537883 -0.364556 0.760119 -0.0628004 -0.142796 0.987758 0.235591 -0.183053 -0.954457 0.60317 -0.786923 -0.130144 0.925698 0.124238 -0.35728 0.53809 0.602523 0.589427 0.784706 -0.241657 -0.570823 0.901899 0.38162 0.202347 0.117193 0.623277 0.773169 0.689916 -0.581018 -0.431781 -0.985657 -0.161302 0.0496142 -0.0476449 -0.997848 0.0450445 0.0402203 0.169892 -0.984642 -0.893377 0.386018 -0.229931 -0.62822 -0.673243 -0.389979 0.44889 0.287861 0.845951 -0.0936274 -0.987962 0.123146 0.788406 0.592688 0.164734 -0.453789 0.828645 -0.327755 0.776323 0.566843 0.275702 0.521414 -0.694459 -0.495837 0.612544 0.788691 -0.0524961 0.642486 -0.0170114 0.766109 0.692983 0.122549 0.710462 -0.305535 -0.902632 0.303157 -0.0296319 -0.329591 -0.943659 -0.769478 0.36451 0.524439 0.214628 -0.254874 0.942854 0.403508 -0.561406 0.722499 -0.768048 0.639014 0.0419911 0.231068 0.474557 0.849355 -0.443738 -0.64783 0.619204 -0.762656 0.168941 -0.624351 -0.82435 0.262334 0.501626 0.792466 0.433832 -0.428705 -0.897508 0.438233 -0.049298 -0.6128 0.416528 -0.671552 0.644399 0.760108 0.0835835 -0.686341 -0.365079 -0.62901 0.380048 0.665982 -0.641897 -0.122052 0.806111 -0.579041 0.0680236 -0.773101 -0.630624 -0.547821 -0.451478 0.704315 0.0373132 -0.94696 -0.319178 0.58594 -0.244514 -0.772585 0.340409 -0.415606 0.843441 0.548627 0.702446 -0.453407 0.809612 0.404195 -0.425622 0.327956 0.784484 0.526337 0.847422 -0.465989 0.254421 -0.0690031 -0.0217696 -0.997379 -0.341582 -0.70958 -0.616294 0.988805 -0.0259719 0.146938 -0.80492 0.217056 0.55226 -0.907022 0.0110035 -0.42094 -0.102102 -0.206053 -0.9732 0.0637103 -0.995124 -0.0752913 -0.607262 -0.757683 0.23906 0.450001 0.205601 0.869038 0.986586 -0.0532093 0.154325 -0.542219 0.0394605 0.83931 0.125018 0.376861 -0.917794 -0.249174 0.927653 -0.27816 -0.24886 0.187206 -0.950275 0.000313482 -0.740447 -0.672114 -0.842072 -0.538143 0.0362818 -0.917537 -0.164023 -0.362245 -0.950902 -0.251404 -0.180501 0.00827344 0.212 -0.977235 -0.33332 -0.435659 0.836121 0.767675 -0.63557 0.0820064 0.0840384 0.987636 -0.132336 0.990658 0.0650826 0.119841 -0.482569 0.754831 0.444249 -0.227447 0.754954 0.615071 0.932094 0.345239 0.10959 -0.962341 0.220368 -0.159179 -0.400647 -0.321655 0.857916 0.162385 0.573567 -0.802902 -0.843633 -0.283078 -0.456235 0.781483 0.454778 -0.427155 -0.985308 0.108589 0.131821 -0.601495 0.709232 -0.367687 -0.448586 0.230617 0.863474 0.359436 -0.608797 -0.707228 0.498663 -0.829659 0.251 0.91142 -0.410602 0.0268288 -0.205806 -0.890362 -0.406079 0.237572 -0.056938 -0.9697 0.429325 -0.103353 -0.897217 -0.0442801 0.00288737 0.999015 -0.987076 0.1432 0.0719302 0.0894861 0.774685 0.625984 0.228398 0.866768 -0.443337 0.874143 0.298465 0.383135 -0.587434 0.657169 0.472282 0.474467 -0.0476693 -0.878982 0.0623924 0.500009 -0.86377 -0.552826 0.468568 0.689077 -0.799572 0.495737 -0.339013 0.974782 0.223139 0.00291719 -0.0392926 -0.781448 -0.622732 0.882894 0.0458857 -0.467325 0.834359 -0.271471 0.479739 -0.732116 0.528604 -0.429633 -0.0884934 -0.982265 -0.165299 0.441256 -0.589994 0.676165 -0.0485354 -0.317356 0.947063 0.0652352 -0.994795 0.0782818 0.417202 -0.379665 0.82571 -0.917082 -0.396242 0.0442031 0.663773 0.118042 -0.73856 -0.270722 0.854603 0.443129 0.302856 -0.49883 -0.812064 0.273604 -0.849726 0.450674 -0.884612 0.0695383 -0.461114 0.162212 0.830769 -0.532457 0.899871 0.419532 -0.119266 -0.593559 -0.744223 -0.306299 -0.876803 -0.433754 -0.207541 0.0779541 -0.581011 -0.810154 -0.965388 -0.207509 -0.158005 -0.870014 -0.460354 0.17649 -0.832687 -0.325278 0.448138 -0.557723 0.807256 -0.193088 0.431587 0.39976 -0.808656 0.63563 -0.261776 -0.726256 0.804086 -0.22489 0.550336 0.371006 -0.903626 -0.214043 -0.757533 -0.138016 0.63804 -0.701317 0.711655 0.0412465 0.420558 -0.336964 0.84237 -0.346827 0.788223 0.508347 -0.985941 -0.0675165 -0.152846 0.973044 0.107426 0.204069 0.131307 -0.0402927 0.990523 -0.681169 0.62327 0.384114 0.0515958 -0.0740013 0.995923 0.327993 0.458584 0.825906 -0.807749 -0.580037 0.10535 0.136227 -0.768091 -0.625682 0.095777 0.241929 0.965555 -0.927787 -0.23239 -0.291902 -0.387884 -0.889766 -0.240545 -0.390781 0.673832 -0.627089 0.949621 0.309468 -0.0494871 0.740596 -0.00675007 0.671916 -0.375193 0.712218 0.593275 -0.0587158 -0.796999 -0.60112 0.529309 -0.84422 -0.0844113 -0.204037 -0.60295 0.771246 0.319672 0.947249 0.023009 0.178159 -0.285983 -0.941527 0.341999 0.492382 0.800373 -0.775163 0.603966 -0.185331 0.763496 0.645311 -0.025458 0.651805 -0.628411 0.424559 -0.816491 -0.572399 0.0755078 -0.50379 0.699846 -0.50637 -0.54802 0.135456 0.825425 0.421986 0.867666 0.262839 0.872558 -0.432174 -0.227745 0.465325 0.212848 0.859167 -0.376649 -0.220441 -0.899745 0.44358 -0.7029 0.556029 -0.432592 0.540633 0.721513 -0.927101 0.0470793 0.371842 0.107356 0.609453 0.78552 0.100263 -0.467008 0.87855 -0.892386 -0.451231 -0.00618227 0.949524 0.0711836 0.30551 0.749464 -0.396057 0.530512 -0.0808885 -0.878047 0.471689 -0.513759 0.635155 -0.576741 0.348825 -0.697674 0.625758 -0.757556 -0.488601 -0.432872 0.851116 0.524915 0.00806623 -0.740084 0.324557 0.589015 0.264709 -0.933408 0.242235 0.146995 0.0981017 -0.98426 -0.681104 0.647061 -0.34265 0.258767 -0.567281 0.781813 -0.208815 0.850378 0.482963 0.304905 -0.634913 -0.709872 0.528379 -0.505951 0.681783 -0.912947 -0.285068 0.291998 0.374892 -0.716635 0.588124 0.594131 -0.660672 -0.458826 0.802849 0.546252 -0.238836 0.526395 -0.783456 0.330312 0.684099 0.334362 -0.648237 -0.958852 -0.14188 0.245914 -0.478446 0.698068 -0.53272 0.42913 -0.0689113 0.90061 -0.0237139 -0.865557 0.500249 -0.452843 -0.796645 -0.400361 -0.639289 -0.331384 -0.693898 0.316889 0.940543 -0.122308 -0.39064 0.242634 -0.887991 0.24948 -0.814938 0.523102 0.88605 -0.389041 0.252115 0.688078 -0.288623 -0.665766 -0.55362 0.791936 0.257569 0.340609 -0.098554 0.935026 0.899052 -0.405794 0.164425 -0.204342 0.851085 -0.483631 -0.947721 -0.249663 0.198731 0.896114 0.155706 0.415615 -0.557672 0.177022 -0.810965 0.321915 -0.282001 -0.903795 0.178052 -0.538762 0.823427 -0.28881 -0.368293 0.883713 -0.907275 -0.416206 -0.0602106 0.660067 0.659654 0.3594 0.848312 0.302133 -0.434836 -0.0704545 0.585156 0.807854 -0.506785 0.861076 0.0414394 -0.00478285 -0.965971 -0.258606 -0.540478 0.0685014 -0.838565 -0.906907 -0.163521 -0.388305 0.45151 0.687341 0.568947 -0.695363 0.679509 -0.23396 -0.82614 0.195767 0.528364 0.537128 0.327023 -0.777528 -0.417759 0.789713 -0.449256 -0.959058 -0.211659 0.188168 0.567993 0.634945 0.523668 0.900249 0.330281 0.283665 -0.402502 0.907077 -0.123305 0.0701328 0.989996 0.122427 -0.485373 0.61614 -0.62031 0.489338 0.866018 0.102768 -0.459172 0.860516 0.220623 0.930026 -0.107418 -0.351444 -0.798406 -0.329391 -0.504033 -0.168591 0.801853 0.573244 0.498821 0.509045 0.701463 -0.300114 0.816958 -0.492455 -0.227104 -0.282229 -0.932079 -0.397019 -0.908528 -0.130201 0.349311 0.629209 -0.694318 -0.442695 0.433519 -0.78491 -0.911274 -0.404886 0.0751452 0.730449 -0.0903093 -0.676971 -0.735986 0.670297 0.0950061 -0.556848 0.0168141 0.830445 0.179138 -0.653483 0.735439 0.41249 -0.528752 0.741804 0.355196 0.903774 0.238808 -0.590602 0.237324 -0.77127