# vtk DataFile Version 4.0
Generated by libgran
ASCII
DATASET POLYDATA
POINTS 1686 FLOAT
-33.1575 1.72573 6.70528 -31.8467 0.854291 7.82024 -33.9596 1.87407 5.11808 -32.7542 2.71533 6.1383 -34.2956 -1.21623 8.10568 -34.5042 2.47427 4.10335 -31.4265 -0.23945 12.5281 -31.2624 -1.93085 13.0069 -32.0131 0.447148 11.5521 -32.1307 -0.638415 10.1345 -31.6154 1.01951 10.1603 -31.0576 1.13908 8.97989 -30.7913 -3.56508 15.5135 -29.9892 -3.21273 14.5132 -30.0223 -2.06689 14.5386 -29.3684 -0.499327 14.1036 -28.7143 -0.240693 14.8145 -28.7425 0.353409 13.4205 -32.4702 -4.23264 13.5741 -34.4129 -4.93144 15.0626 -33.3733 -4.37754 14.4459 -33.5037 -4.74761 16.1502 -35.2387 -5.39367 14.1217 -32.8102 -5.09651 17.0807 -33.0864 -3.7763 17.644 -33.3769 -3.36737 18.741 -32.0851 -3.30567 19.0186 -31.6451 -4.80392 21.6977 -32.8076 -4.00275 22.3262 -32.0323 -3.92429 20.6457 -31.4311 -6.01434 22.2047 -32.3144 -7.57303 21.941 -32.5685 -3.96061 23.9924 -31.2608 -4.3079 19.3296 -31.6517 -8.23728 19.9696 -32.275 -9.5085 19.7819 -30.3459 -8.4654 19.8668 -29.2387 -8.4535 19.8073 -28.9127 -7.11876 20.9855 -29.6982 -6.52601 22.4261 -28.7397 -5.65309 21.0391 -31.4157 -10.4793 20.8288 -23.0475 -12.439 23.4128 -23.9796 -12.0414 22.552 -25.2349 -12.9905 22.5219 -22.6604 -11.5727 25.1624 -24.0429 -11.5542 25.5983 -26.6524 -13.93 22.6859 -28.5226 -11.6897 19.9116 -27.5123 -11.1869 19.0759 -28.0282 -12.7744 20.5008 -29.5478 -12.5222 20.8432 -27.271 -13.6925 21.5896 -30.4464 -11.4854 21.5754 -26.538 -12.5048 18.2098 -26.4719 -13.8332 17.1549 -25.581 -15.939 17.9718 -25.2445 -15.8817 16.6864 -26.4477 -15.0967 16.7152 -24.2929 -15.2607 18.904 -23.4289 -15.4462 16.3041 -22.736 -15.0343 19.3595 -22.7058 -16.0862 19.7792 -22.6982 -14.1015 12.4375 -23.7236 -14.5791 12.2163 -24.0049 -13.012 12.7529 -21.432 -14.1058 12.8434 -21.3192 -14.9991 11.4535 -21.3244 -13.6774 14.6547 -22.0673 -14.2674 15.9775 -36.5415 15.9771 3.99846 -36.9545 15.5206 2.11205 -36.962 14.5376 1.92859 -35.4432 16.4272 5.06418 -34.8171 16.241 5.94591 -33.8577 16.5132 5.87265 -34.1712 15.9957 6.66881 -40.1691 15.0887 1.81126 -41.0245 15.8405 1.12629 -39.1584 16.3958 1.3051 -39.4163 14.6892 2.5251 -40.4437 13.3244 2.00914 -41.2018 12.2989 2.45512 -41.9004 11.2081 3.19058 -46.196 11.8711 3.0081 -46.4892 10.9417 2.35387 -46.9008 13.1904 2.20737 -45.4565 13.3961 4.06747 -42.85 10.714 3.18201 -41.9955 9.66163 2.30793 -42.4608 9.91473 1.09213 -42.2337 8.95624 0.512344 -42.0027 8.19705 1.88108 -42.4561 11.3807 0.11836 -43.8697 10.4184 0.694758 -42.6743 11.7531 -1.14941 -42.1578 6.75433 1.45496 -42.333 6.7504 3.06601 -44.0439 8.24674 -5.61197 -43.3228 7.95883 -6.69136 -44.3186 6.51792 -6.30535 -44.7294 9.78122 -7.21248 -45.5293 9.22591 -7.65455 -45.6034 10.0214 -5.93276 -46.7559 8.85295 -8.19552 -46.4033 9.46614 -6.37483 -45.2719 5.0303 -5.92886 -45.0116 10.3499 -3.87037 -45.8309 10.3382 -4.93106 -44.9952 10.3428 -2.64333 -45.2528 10.1766 -1.56149 -45.9327 9.86326 -0.727735 -45.0134 9.70378 -0.21132 -46.9956 11.2299 -0.862902 -45.21 11.0089 0.915831 -43.1154 4.48121 -8.67679 -42.0451 4.61597 -10.0037 -42.3731 3.44203 -8.46001 -43.3392 5.72771 -8.27142 -43.7251 6.95975 -8.64203 -45.3463 6.89788 -8.3431 -42.7757 1.90703 -7.86784 -46.4921 6.46121 -8.72654 -45.0399 1.55766 -4.84747 -44.4027 2.72322 -5.1085 -45.5705 3.43291 -5.23075 -43.2503 3.81373 -5.61613 -25.23 13.4635 19.4405 -25.7453 14.3222 20.3152 -24.3169 14.7377 19.7211 -26.5456 12.5404 18.4937 -28.2639 12.6911 19.9906 -28.7331 10.2147 18.1031 -29.2279 11.8325 17.3048 -29.2657 9.06022 17.9469 -28.5525 8.33841 18.3298 -28.5558 11.8961 16.567 -30.7846 8.3936 18.3869 -30.1028 9.10008 16.7392 -30.9862 7.96192 20.0055 -26.3797 4.23549 12.9594 -26.1989 3.12905 12.7698 -26.699 5.37936 13.5574 -28.2419 4.68539 13.4063 -27.6473 2.35493 13.4895 -27.4031 2.0685 12.0351 -28.0425 1.64098 14.829 -27.0705 1.32169 10.8586 -26.7337 1.54456 9.86335 -29.1991 8.84284 15.5439 -30.4583 8.79254 15.1198 -28.0643 9.07687 14.7641 -30.5591 7.33685 14.0945 -31.6846 8.74849 14.1321 -31.1003 6.10484 13.9885 -29.7129 5.6054 13.6713 -33.6396 6.90742 5.74919 -34.8074 6.52467 5.24149 -32.9879 7.72283 6.3051 -32.6513 6.05835 6.84993 -36.4882 6.10304 6.10183 -34.5402 4.38961 6.97587 -37.6484 6.73849 5.79327 -37.6567 6.74074 4.2785 -40.8926 5.72017 4.91025 -39.3578 5.16336 4.77957 -42.1028 6.21263 4.6698 -42.6895 5.64361 3.02459 -38.3412 6.47787 3.54143 -38.6587 4.41308 5.94172 -32.3951 5.80503 11.8244 -31.8467 8.1863 10.9812 -33.0032 8.39758 12.2787 -33.0831 8.66762 13.3495 -33.8164 7.60515 13.7836 -32.1059 10.1975 13.5553 -34.1819 6.25758 14.3655 -34.7524 3.61515 9.53977 -34.2089 3.40408 10.7348 -33.9847 3.83264 7.7208 -33.4663 3.59159 11.9033 -25.6606 23.2846 28.6134 -26.0348 21.9973 29.1321 -25.6493 22.8361 30.1882 -25.4236 23.4567 27.3164 -25.8575 24.9122 27.9298 -26.6576 26.0687 28.0025 -22.8693 23.5983 28.5159 -22.5396 23.8594 30.8232 -23.3995 24.4542 31.9974 -22.265 23.6304 29.5425 -21.8213 23.3268 28.5708 -23.6733 25.4131 29.0729 -23.3697 24.6013 33.2255 -25.466 27.4963 33.3988 -25.1563 28.4684 34.2543 -26.1905 29.2996 33.5147 -25.7793 26.8383 32.5635 -24.8008 26.1718 32.2939 -23.6202 29.0646 35.3256 -25.4973 25.2735 31.6347 -20.8792 26.0298 35.6902 -20.9524 24.7418 36.0125 -20.7968 27.1232 35.5828 -19.8465 27.8614 36.3952 -20.8833 28.6114 35.8363 -18.3469 27.6607 37.2426 -18.5008 28.8529 36.7328 -21.8974 29.4991 35.554 -19.9497 29.6741 35.2656 -27.706 23.6687 33.4167 -28.2583 25.8942 33.7929 -30.2785 24.7396 35.8828 -30.1203 23.6192 35.0213 -29.7022 22.9715 33.2824 -26.3924 23.4652 33.3033 -31.3659 20.6733 31.3688 -31.9873 21.5003 32.8294 -30.1008 20.4969 30.9953 -29.2327 20.2166 30.5856 -32.128 22.5343 34.0941 -33.007 22.0803 33.9484 -34.8047 22.5005 33.7697 -35.5583 22.3862 32.4741 -35.1329 21.529 32.0033 -36.5956 23.7319 31.6724 -37.0682 23.5304 33.3152 -37.549 24.2097 32.3167 -36.194 21.6005 33.8275 -37.1454 24.5383 34.9008 -37.3575 25.5466 32.997 -41.076 25.0182 36.2605 -40.5409 26.1302 35.7655 -39.5687 25.3809 35.2823 -38.171 25.3864 34.9901 -41.0489 25.3132 34.0792 -37.0611 25.6277 34.6183 -34.3694 7.61347 23.4517 -34.2037 6.51397 24.18 -35.7065 7.53753 24.4339 -33.1702 7.69427 22.3225 -34.4091 8.85439 22.674 -31.7817 6.64662 21.6496 -30.8748 6.12353 20.6429 -31.4362 5.41185 19.9445 -29.8509 5.86294 19.6442 -31.9939 4.39778 19.2898 -31.7156 3.80809 20.5691 -27.972 4.53677 18.6198 -27.7647 5.61061 18.3255 -39.1669 7.8427 24.075 -39.4572 6.9892 25.0523 -40.9184 6.4853 24.547 -39.521 9.2254 24.5223 -40.8804 8.83817 24.1156 -37.6665 5.75038 21.8284 -37.8633 7.23507 22.6858 -36.8763 5.39903 22.5453 -36.1026 5.02853 23.0594 -34.6736 5.64635 22.0442 -35.062 4.45252 23.3137 -29.5971 15.7057 22.8137 -30.6327 15.6904 23.6476 -29.3196 15.4672 24.6761 -28.5973 15.2976 21.993 -29.5843 14.8962 21.0996 -31.6339 16.4211 23.9896 -31.1524 17.4439 25.338 -30.0652 18.17 26.7671 -32.5543 9.92813 20.9121 -31.4142 9.80452 21.5403 -31.0208 10.934 20.6049 -33.6498 10.6799 20.9671 -34.2964 9.6116 21.7832 -29.7672 11.2635 21.1835 -29.779 12.2628 21.1461 -28.9614 19.5653 27.1325 -28.9682 17.9949 26.9214 -29.7263 19.7316 29.3239 -31.1371 19.7031 28.2595 -28.6232 16.4837 27.1149 -27.8753 15.4128 27.9912 -30.8991 19.8979 25.8921 -31.8445 19.298 26.9547 -30.7884 21.2213 25.9582 -32.3126 21.924 25.5599 -33.9285 21.7442 25.6335 -33.8496 22.9897 23.8598 -6.18878 25.2323 40.599 -5.22073 25.1458 40.8344 -7.46194 24.844 40.5358 -5.67278 24.4276 40.3054 -8.30074 26.0775 41.4297 -9.10608 24.6279 40.8452 -9.11714 25.7248 40.9724 -9.13483 26.6283 41.4006 -5.03495 23.4079 40.6824 -3.86593 23.9779 40.1352 -4.72674 21.7078 40.8895 -9.89892 23.7029 39.7639 -6.31279 20.1136 42.172 -6.20389 20.9608 40.8934 -7.30108 19.0838 42.3977 -7.88556 18.1774 42.7026 -4.33848 21.0827 41.9127 -1.26984 25.1799 41.3406 -2.25833 25.3301 40.464 -2.56125 24.1282 40.4502 -0.0230955 26.5781 41.2222 -2.02681 26.9141 39.9627 -2.76553 22.8877 40.3643 -2.04244 28.7208 40.1267 0.836156 30.8554 40.661 1.41521 29.6507 41.6173 -1.88537 30.3268 39.6431 2.47204 29.0677 41.022 -2.92566 29.8953 40.926 -21.3087 32.9551 42.5947 -20.047 32.5676 42.4334 -21.496 33.2061 44.268 -22.5381 32.3446 42.9052 -18.9341 31.8075 45.0889 -19.4716 32.3485 46.5445 -18.2328 31.0172 43.715 -15.7584 29.9072 42.1354 -16.6401 29.8677 43.1298 -14.8514 28.5248 42.2013 -17.7092 29.7919 43.2366 -17.6811 28.7615 44.3214 -16.7389 28.2064 43.8817 -13.7463 28.5768 43.0976 -14.6136 28.1729 43.7195 -17.6706 28.1134 45.7761 -11.8427 25.1585 44.3728 -13.1057 25.531 44.5718 -11.6014 25.5292 43.4759 -10.8818 25.2493 44.1113 -13.4775 26.6056 45.4858 -13.9995 25.6722 46.3415 -14.0744 28.0322 45.1048 -10.7887 26.6033 43.1082 -15.6194 27.894 44.4054 -10.2985 28.3823 40.8095 -9.71708 27.1929 40.6211 -11.0254 28.1205 42.161 -11.1332 29.1136 42.2084 -11.868 28.4624 40.6921 -11.0446 28.5796 43.0492 -20.3847 35.8886 39.5504 -20.4158 36.5366 37.7583 -19.5652 36.5515 40.3617 -19.622 38.1156 39.9752 -19.3356 37.9937 40.9255 -19.9527 38.7418 40.6813 -20.0532 39.7971 40.0379 -20.133 36.0394 36.8057 -21.1111 37.4043 37.0094 -18.9785 39.3337 41.5 -20.5506 42.2757 43.6431 -22.174 41.6811 43.0243 -22.4624 42.3664 43.9218 -22.2463 40.7009 41.7813 -23.6633 40.7557 42.8905 -20.7785 40.5177 40.6979 -19.079 40.389 40.8566 -22.8077 44.404 44.9078 -21.7471 44.9425 43.5416 -22.2153 44.264 46.09 -23.2117 43.1604 45.0076 -21.6394 44.8679 42.282 -20.6281 45.8856 43.0085 -22.0599 42.0862 47.6345 -22.9029 41.5109 50.8376 -22.4407 42.6185 50.2652 -23.6633 43.2933 50.7669 -21.4282 42.3496 49.113 -20.0699 43.4795 48.8253 -24.7005 43.798 50.429 -16.7633 29.0795 39.71 -15.9738 28.6767 38.7188 -16.1845 30.0008 38.3135 -15.6983 27.1574 38.979 -17.2354 30.0949 37.2302 -14.7817 26.8561 40.3271 -13.3447 27.7345 40.5006 -18.561 29.8117 36.1217 -18.7947 30.7745 34.7972 -18.0605 30.0991 34.8666 -17.882 30.9907 34.4504 -19.2196 32.0353 36.327 -18.8751 31.6428 37.4536 -21.8161 30.5297 37.4784 -22.2641 31.5248 36.2247 -22.6209 34.6142 41.3634 -24.1709 33.815 41.4591 -21.8628 33.7134 40.7455 -22.1508 33.4038 39.5359 -25.125
[...]
POINT_DATA 1686
FIELD FieldData 1
normals 3 1686 double
-0.463591 0.51536 -0.720755 0.847238 -0.356077 0.394204 -0.338473 -0.36702 -0.866448 0.86686 0.474244 0.153774 -0.912049 -0.370306 -0.176183 -0.206136 0.967224 -0.148278 -0.484732 0.874662 0.000865942 -0.320715 -0.816735 0.479673 -0.101901 -0.188065 -0.976856 -0.0157267 -0.897498 -0.440737 0.499565 0.76043 -0.414947 0.0582072 -0.640865 -0.765444 -0.282236 -0.896428 0.341701 0.519827 -0.544083 -0.6586 0.486758 0.60176 -0.633207 0.167135 0.965802 0.198224 -0.486889 0.707168 -0.512691 0.458756 -0.113065 -0.881339 -0.848933 0.514285 0.12175 -0.985473 0.105282 -0.133262 0.0541444 0.659186 -0.750029 -0.0761994 0.289114 0.954257 0.159747 -0.567515 -0.807717 0.76966 -0.638012 -0.0237318 0.493452 0.682196 0.53955 -0.783901 -0.27327 0.557515 0.50782 -0.211564 0.83508 0.842094 -0.472579 0.259897 -0.320423 0.328591 0.888458 0.454929 0.407055 -0.792052 -0.628087 -0.737844 0.247167 -0.25528 -0.820838 -0.510938 0.55951 -0.286449 0.77775 0.316556 -0.790668 -0.524058 0.778261 0.343017 0.525974 0.15502 -0.928197 0.338259 0.527634 -0.571135 -0.628815 0.579563 0.583039 0.569361 -0.253613 0.751701 0.60879 -0.531832 -0.158953 0.831798 0.426617 0.713964 -0.555206 0.704309 -0.0425845 0.708615 -0.346974 0.908882 -0.231391 -0.585145 -0.511279 -0.629443 -0.670112 -0.43781 0.599393 0.795756 0.599218 0.0878066 -0.586715 0.617696 0.523658 -0.747441 -0.501751 -0.435406 -0.391592 -0.905874 0.161394 0.618705 -0.403124 -0.674311 0.885996 -0.178794 0.427836 -0.63361 0.0733431 0.770168 -0.128845 -0.739323 0.660908 -0.264972 0.963508 -0.0379712 0.35564 -0.914736 -0.191778 -0.289544 -0.413667 -0.863159 0.553057 0.00757878 0.833109 0.889535 0.0648836 -0.452235 -0.313661 0.849873 -0.423477 0.735029 0.670753 0.0991084 0.926137 0.370649 0.0699181 0.821916 -0.444311 0.35643 0.791722 0.607597 -0.0632623 0.851071 -0.214514 -0.47923 -0.17431 -0.692169 -0.70037 -0.455658 0.874957 -0.163787 0.415112 0.210214 0.885151 0.527886 -0.683082 -0.504713 -0.307471 0.218174 0.926208 -0.435442 -0.808175 0.39654 0.158608 0.118854 0.980162 -0.254466 -0.337579 -0.906249 -0.247056 0.645401 -0.722787 0.939634 0.331312 0.0855593 -0.313546 -0.517509 0.796162 0.645915 -0.245355 0.722907 0.959461 0.272154 -0.0732563 -0.129972 -0.834291 0.535786 -0.985364 -0.0824828 -0.149182 0.880666 0.472811 0.0296292 0.882739 0.434819 0.178054 -0.144639 -0.930001 -0.337901 -0.613517 -0.0955286 0.783882 -0.0850785 -0.995197 -0.0484202 -0.511144 0.857065 0.0645825 -0.804417 -0.072337 -0.589645 -0.193659 0.462317 -0.865309 -0.475678 0.879589 0.00736785 0.864502 -0.501048 -0.0398422 0.00999478 0.551322 0.834232 -0.455304 0.804427 -0.38157 -0.228171 -0.154061 -0.961355 0.00276659 -0.913252 0.407386 0.46001 0.661584 -0.592198 -0.953562 -0.300781 -0.0157996 -0.678211 -0.289198 -0.675569 -0.157872 -0.529474 -0.833507 -0.33305 -0.533401 0.777535 -0.176279 0.86456 0.470597 0.544831 0.576653 -0.608795 -0.45101 -0.864267 -0.222785 -0.150641 0.662653 0.73362 -0.950515 0.107345 0.291544 -0.723409 -0.422429 0.546107 -0.276089 -0.48031 -0.832513 0.0764681 0.132879 0.988178 -0.502295 -0.623351 0.599278 0.323339 -0.727539 0.605094 -0.495966 -0.739226 -0.45559 -0.306933 0.720398 0.621947 0.0492537 -0.886607 0.459894 -0.729085 0.573289 0.373864 0.190171 0.41381 0.890279 -0.333808 0.793385 -0.509031 -0.386714 0.89126 0.236872 -0.733302 0.398446 0.550916 0.336959 0.533206 -0.775983 0.00903563 -0.640741 0.767704 0.509536 0.848052 -0.145539 -0.895485 0.383991 -0.225072 -0.725688 -0.445869 0.524002 -0.411689 -0.894259 -0.175536 -0.420077 0.00920155 -0.907442 -0.326936 0.901225 -0.28444 0.964147 0.264335 0.0234103 -0.203694 0.974033 -0.0988363 0.188229 0.826174 -0.531043 -0.419651 -0.532587 -0.735013 -0.934942 0.32616 0.139651 0.49345 0.741611 -0.454444 -0.895908 -0.390466 -0.211859 -0.789877 -0.126516 -0.600074 0.403097 -0.909894 0.0980071 -0.0916605 0.707923 -0.700317 -0.935719 -0.244595 -0.254173 -0.222482 -0.966406 0.128692 -0.763789 0.64438 0.0374394 -0.583094 -0.422031 0.694184 0.0986328 0.284457 -0.953602 0.381434 -0.00964933 0.924346 -0.884035 0.397654 0.245669 -0.703193 -0.708786 0.056056 0.564781 0.746219 0.352392 -0.978144 0.0522437 0.20126 -0.745197 -0.0653345 0.663636 -0.501071 -0.351766 -0.790689 0.349964 -0.648621 0.675882 0.833695 -0.395045 -0.385866 -0.49685 0.617919 -0.609357 0.805069 -0.541705 -0.241702 -0.454142 -0.592001 -0.6658 0.329802 0.775739 -0.538014 0.353358 -0.863687 -0.35942 -0.772101 0.547947 -0.321891 -0.894497 -0.368326 0.253401 0.492863 -0.867766 -0.0637779 0.380954 -0.075107 0.921538 -0.786831 -0.457856 0.413841 0.270736 0.890516 -0.365627 0.607341 -0.773966 0.179204 -0.894053 0.0362238 0.446495 0.93052 -0.332102 -0.154403 -0.266107 0.599226 -0.75506 0.257798 -0.596979 -0.759708 -0.646979 0.488102 0.585811 0.887768 -0.0687063 0.455134 -0.563272 0.00436428 -0.82626 -0.0234462 -0.573387 -0.818949 0.942262 -0.334111 -0.0226434 -0.188663 -0.681569 0.707015 0.378348 -0.752952 0.538439 -0.450165 0.570048 0.687311 -0.706359 -0.358769 0.610198 0.626426 0.628811 0.460638 -0.106833 -0.433664 0.894719 0.350818 0.901088 -0.254889 -0.25873 -0.913901 -0.312801 0.392694 -0.00737514 -0.91964 0.936195 -0.218443 0.275359 0.375022 0.224868 -0.899329 -0.19355 0.405955 0.893162 -0.377568 0.644283 -0.665088 -0.751764 -0.642968 -0.146434 -0.366307 0.195809 0.909658 0.614598 -0.472152 -0.631935 0.18063 0.983376 -0.0185736 -0.980666 0.173099 0.0912784 0.716301 0.651606 0.249645 0.162616 -0.848412 -0.503738 -0.697241 -0.253587 0.670483 0.112006 0.619478 -0.776982 0.331705 -0.923066 -0.194731 -0.30002 -0.504384 -0.809682 0.727024 0.400707 0.557558 0.474842 -0.844182 -0.248759 0.784519 0.127966 0.606758 -0.249713 0.959158 -0.132887 -0.788221 0.186143 -0.586565 0.190346 -0.480338 -0.85618 0.751616 0.468236 0.464573 -0.886835 -0.417966 0.19705 0.125938 0.459212 -0.879354 0.0526964 -0.828798 -0.557061 -0.0435163 0.634157 0.771978 0.993758 0.103989 0.0403962 -0.0430056 0.85399 -0.518509 0.505901 -0.304657 0.806999 0.351973 0.887574 0.297197 -0.971115 0.0337663 0.236209 0.976571 0.208764 -0.0522212 0.543521 -0.481234 -0.687749 0.855587 -0.125382 -0.502244 0.16897 -0.977249 0.128192 -0.0108292 -0.143132 -0.989644 0.428969 -0.504577 -0.749258 0.770098 0.27775 0.574285 0.454109 -0.752133 -0.477578 -0.167327 0.0748547 0.983056 0.811027 0.575671 0.104109 0.0570111 -0.855984 -0.51385 0.026695 0.959154 0.281623 -0.852287 0.50511 0.135907 -0.945419 -0.0849381 -0.314591 -0.191781 0.0293704 0.980998 0.233574 -0.827744 0.51018 -0.579766 -0.449101 0.679838 0.107119 0.247558 0.962933 -0.373612 0.926903 -0.0355745 -0.443898 -0.815062 0.372328 -0.184329 0.760392 0.622757 0.565084 0.41001 0.715941 -0.950846 -0.269481 0.152554 -0.415714 0.842548 -0.342483 0.55643 0.0932532 -0.825645 0.841262 -0.0877356 0.53346 -0.342466 -0.821972 0.455059 0.268682 0.328966 -0.905313 0.656154 0.594405 -0.464915 0.821901 -0.505099 0.263352 -0.680932 0.518465 0.517229 0.543089 -0.513609 -0.664274 -0.695831 0.646517 -0.312787 0.845419 -0.534034 -0.00864712 0.0614675 0.0109434 -0.998049 -0.622906 -0.722625 0.299669 0.962428 -0.271537 -0.00070703 0.0651762 -0.291448 -0.954364 0.343565 -0.881141 0.324891 -0.383024 0.450121 -0.80665 0.590285 0.623716 0.512388 0.379977 -0.113791 0.91797 -0.670303 -0.739707 0.0593896 -0.790878 0.235805 -0.56472 -0.850613 -0.276688 0.447103 -0.508775 -0.110539 -0.853774 0.946345 0.323125 -0.00466093 0.362821 -0.153316 0.91916 -0.156123 -0.674475 0.721601 0.929798 0.303977 -0.207542 0.499244 0.313842 -0.807625 0.110823 -0.879985 0.461892 0.0574191 -0.120077 -0.991103 -0.978229 -0.135441 -0.157239 0.334914 -0.358637 0.871328 0.942327 -0.288038 0.170452 -0.0446557 -0.689423 -0.722982 -0.0230051 0.866114 0.499317 0.504546 0.156774 0.849032 0.582619 0.569286 0.580059 -0.93365 -0.205838 0.293136 0.206393 -0.329454 0.921337 0.599805 0.800022 -0.0140639 -0.161925 0.957645 -0.238108 -0.808504 -0.110693 0.577986 0.653766 -0.470486 0.592648 0.641971 0.528745 0.555249 0.521192 0.826019 -0.214597 0.514366 -0.744417 -0.425759 0.550564 -0.37103 0.747807 -0.860287 -0.399577 -0.316615 -0.169342 -0.766711 0.619256 0.917254 -0.304256 0.257048 0.792433 0.605412 -0.0743345 -0.152923 0.00551158 0.988223 -0.681717 0.718025 0.14036 -0.842433 -0.0153024 -0.538584 -0.773445 -0.164549 0.612133 -0.436091 -0.773837 -0.459348 -0.45205 -0.71822 -0.528971 0.516001 -0.804699 -0.293602 -0.82111 0.329944 0.465742 0.968051 -0.08648 0.235368 -0.0176882 0.903536 0.428148 -0.823035 -0.546036 -0.156395 -0.834094 0.550853 -0.0291219 -0.816406 -0.352683 -0.45727 -0.330224 -0.933217 0.141628 0.838798 -0.363159 -0.405627 0.638437 -0.766888 0.0654291 0.0302022 -0.378967 -0.924917 0.0068682 -0.956581 0.291385 0.115768 -0.109332 -0.987241 -0.995153 -0.0732249 -0.0656336 0.410672 -0.833116 0.370495 -0.250174 0.14177 0.957765 0.825525 0.538213 0.169807 -0.162965 0.688389 -0.706798 -0.465882 -0.513463 -0.720631 0.421221 0.859954 -0.288188 0.394488 0.895636 0.205465 0.2616 -0.727065 0.634777 -0.41012 0.911089 -0.0414414 -0.226939 0.269059 -0.936005 0.352114 -0.935738 0.0202642 -0.567195 -0.694843 0.442135 0.704719 0.352815 -0.615542 -0.473095 0.263393 0.840717 -0.600386 -0.00629831 0.799686 0.661316 -0.393788 0.638429 0.413101 0.257304 0.87358 -0.629015 -0.604191 -0.489176 0.805069 -0.255397 -0.535383 0.267581 0.285563 0.920247 -0.103815 -0.534927 -0.838496 0.440139 -0.726657 -0.527492 -0.44158 -0.766139 0.466946 0.466811 -0.65572 0.593395 -0.627471 0.690355 -0.360124 -0.599407 -0.340061 0.724617 0.342782 -0.895168 0.284914 0.638292 0.707675 0.302952 -0.229006 0.303851 0.924787 0.609945 -0.308048 0.730119 0.719679 -0.279896 0.63539 -0.543281 0.0926447 0.834424 0.960928 0.0908565 -0.26146 0.24125 0.370753 -0.896851 0.171428 0.981981 0.0795327 -0.35052 0.0485521 0.935296 -0.768285 0.444584 -0.460524 -0.148146 0.983235 -0.106308 -0.776742 -0.582779 -0.238831 -0.81554 0.272199 0.510688 -0.234157 -0.917237 0.322253 0.088599 -0.533993 0.840834 -0.0192034 0.459051 0.888202 -0.754022 -0.192122 -0.628124 -0.107802 0.993043 0.0473691 0.259295 -0.153142 0.953579 0.228214 0.494787 -0.838513 0.560228 0.816033 -0.14225 -0.617074 0.748047 -0.244226 -0.330679 0.626158 0.7061 0.286394 -0.121888 0.950327 0.185879 0.9334 0.306941 0.0546059 -0.991972 -0.114061 -0.923505 0.372972 0.0896157 0.687839 0.713829 -0.131623 0.9943 0.0102368 0.106127 -0.629037 -0.584375 -0.512658 -0.917451 0.100944 0.384829 0.556719 -0.395853 -0.730318 -0.860296 -0.341059 0.378905 0.911101 0.212717 -0.353053 0.788356 -0.341457 0.511764 -0.235915 -0.550536 0.800784 0.824734 -0.0120593 -0.565392 0.828297 0.410481 0.381353 -0.168105 -0.693058 -0.701007 -0.717062 -0.0624877 -0.694202 0.294206 0.955198 0.0322447 0.727882 -0.262559 0.633443 0.454072 -0.850561 0.265263 0.916294 0.257012 -0.307165 -0.306353 0.931841 0.194475 0.096181 -0.525936 -0.845068 -0.476627 0.157603 -0.864863 -0.730831 -0.427163 -0.53237 0.716207 0.472691 -0.51343 0.073228 -0.87545 -0.477729 -0.137483 0.448583 -0.883104 0.202291 -0.643887 0.737895 -0.913407 -0.354424 -0.20018 0.71435 0.342568 0.610206 0.722634 0.535821 -0.436687 -0.412166 0.0711892 -0.908323 0.178502 0.891596 -0.416166 0.912685 0.216198 -0.346791 0.734183 -0.675398 0.0693756 0.805447 0.264686 0.53028 -0.460936 -0.657202 0.596342 -0.741139 0.520924 -0.423499 0.293203 0.474161 -0.830183 0.975666 -0.0100303 -0.219031 -0.57433 -0.809279 -0.123335 -0.217568 -0.890811 -0.398899 -0.0703538 0.581267 -0.810666 -0.380058 -0.861721 0.336143 -0.976557 -0.215195 -0.00519731 -0.795648 0.564946 -0.218588 -0.337535 -0.423925 -0.840451 -0.0533043 -0.818213 0.572439 -0.498073 -0.0890198 0.862554 0.363466 -0.925588 0.105735 0.674824 0.0653476 -0.73508 0.059242 -0.72143 -0.689948 -0.615582 -0.786779 0.0451304 -0.562567 0.826731 0.0058428 -0.664625 -0.330965 0.669877 0.0609813 0.976897 0.204828 0.60518 0.272125 0.748135 0.247963 -0.661043 0.708193 -0.357216 -0.933167 -0.0399416 0.116483 -0.980129 -0.160556 0.954293 0.279518 -0.105809 0.960367 -0.275703 0.0410364 0.378308 0.916778 0.128065 0.151925 -0.0271995 0.988018 0.757101 0.0941997 -0.64647 0.629302 -0.257673 0.733201 0.0985919 0.205753 -0.973625 -0.517861 0.264177 0.813653 0.631248 0.668079 0.39395 -0.329645 -0.525097 0.784606 -0.925621 0.378314 0.0102346 0.996921 -0.0163835 -0.0766809 -0.0262098 0.563245 0.825874 0.110535 0.991589 -0.0673346 -0.349877 -0.879493 -0.322611 0.136745 0.428345 -0.893208 -0.215448 -0.116092 0.96959 -0.0225111 -0.20441 -0.978626 -0.910149 -0.323626 -0.258643 0.0922166 0.166729 -0.981681 -0.435092 0.898794 -0.0535238 -0.161422 0.527202 0.834267 0.946786 -0.310934 -0.0831595 0.192791 -0.37211 0.907946 -0.16844 0.663015 -0.72941 -0.839705 -0.419311 -0.345071 0.933275 0.140006 -0.330752 0.0090604 -0.0195958 0.999767 -0.201589 0.850049 0.486599 0.125656 -0.183621 0.974933 0.11591 -0.749046 0.6523 0.711456 0.0455731 -0.701251 -0.197271 0.676454 -0.709573 -0.730284 -0.513776 -0.450244 0.945325 0.0846151 0.314962 0.296704 -0.205956 -0.932496 -0.359208 -0.213444 0.908521 0.173533 -0.0836535 0.981269 0.481908 -0.162317 -0.861056 0.283663 -0.9488 -0.138977 0.901546 0.244607 -0.356907 0.459403 0.658301 0.596312 0.822229 -0.150646 -0.548857 0.828818 0.527771 0.18579 0.00658884 0.678417 0.734647 0.778416 -0.491795 -0.390136 -0.950383 -0.298583 0.0872992 0.0952974 -0.994496 0.0435438 -0.0457299 0.250969 -0.966914 -0.949505 0.276588 -0.148118 -0.72311 -0.583337 -0.369905 0.213612 0.332722 0.918513 0.0330289 -0.993363 0.11018 0.887297 0.394918 0.238211 -0.281182 0.942301 -0.181673 0.86981 0.362918 0.334248 0.379585 -0.714817 -0.587326 0.758341 0.650815 0.0368466 0.6114 -0.249891 0.750829 0.669713 -0.135362 0.730179 -0.469062 -0.874758 0.121569 -0.0412992 -0.138772 -0.989463 -0.695825 0.44691 0.562227 0.110964 -0.427136 0.897353 0.239077 -0.733295 0.636491 -0.645673 0.748354 0.151896 0.271637 0.262141 0.926011 -0.578634 -0.658401 0.481344 -0.691619 0.415141 -0.591034 -0.787736 0.310563 0.531999 0.876474 0.339159 -0.34171 -0.800732 0.59901 0.00389251 -0.492357 0.637956 -0.592112 0.776589 0.590921 0.218455 -0.718528 -0.108792 -0.686936 0.555395 0.635992 -0.535771 0.0560227 0.903644 -0.424605 -0.116205 -0.676817 -0.726922 -0.653058 -0.389695 0.649349 -0.195097 -0.876752 -0.439594 0.521026 -0.282367 -0.805482 0.214586 -0.590116 0.778278 0.716123 0.594385 -0.365888 0.893357 0.239119 -0.380441 0.495079 0.608713 0.619972 0.737615 -0.651842 0.176141 0.0270872 0.231316 -0.972502 -0.480065 -0.550462 -0.683029 0.955678 -0.260073 0.137989 -0.807956 0.22415 0.544945 -0.846459 0.28024 -0.452739 -0.0385038 0.0560895 -0.997683 -0.172088 -0.969255 -0.175871 -0.776494 -0.604129 0.179121 0.451176 0.050578 0.891001 0.939439 -0.294618 0.175084 -0.549177 0.123273 0.826564 0.245989 0.386216 -0.889003 -0.0191367 0.973539 -0.227719 -0.159592 0.289711 -0.943715 -0.140456 -0.683829 -0.715996 -0.945487 -0.325261 -0.0161401 -0.914772 0.0710495 -0.397674 -0.977418 0.00224551 -0.211303 0.0897794 0.273372 -0.95771 -0.454851 -0.400063 0.79565 0.594308 -0.80302 0.0442348 0.317362 0.946743 -0.0543915 0.97075 -0.177014 0.162203 -0.31657 0.821265 0.474665 -0.283493 0.722991 0.630012 0.918238 0.33078 0.217769 -0.941553 0.236922 -0.239469 -0.439622 -0.366793 0.819875 0.235495 0.518086 -0.822271 -0.81901 -0.286999 -0.496844 0.821645 0.412356 -0.393524 -0.971637 0.189972 0.140825 -0.964287 0.0496985 -0.260153 -0.304607 0.5377 0.786189 0.508257 -0.683986 -0.523295 0.926807 -0.251502 0.278882 0.970231 0.0793815 -0.228803 0.0970937 -0.987776 -0.121951 0.0830453 -0.27402 -0.958132 0.204224 -0.13187 -0.970002 -0.0234577 0.0649778 0.997611 -0.975011 0.207317 0.0798305 0.159489 0.80122 0.576723 0.273706 0.831079 -0.484141 0.905987 0.271319 0.324921 -0.523588 0.7336 0.433228 0.434761 -0.154255 -0.887236 0.0611784 0.420201 -0.905367 -0.487508 0.56473 0.665895 -0.634176 0.675812 -0.375632 0.986284 0.157164 -0.050434 -0.228949 -0.651288 -0.723468 0.866658 -0.100291 -0.488719 0.744674 -0.529623 0.406152 -0.60169 0.735851 -0.310632 -0.239611 -0.885265 -0.398614 0.272485 -0.799239 0.535695 -0.121983 -0.429332 0.894871 -0.108988 -0.983677 -0.143182 0.256065 -0.61434 0.746336 -0.971797 -0.225825 -0.0679267 0.71887 0.15743 -0.677084 -0.149479 0.770126 0.620131 0.261936 -0.342159 -0.902395 0.12804 -0.9609 0.245514 -0.8446 0.304594 -0.440311 0.324586 0.862101 -0.389134 0.965554 0.247552 -0.0801426 -0.69204 -0.531907 -0.488012 -0.91596 -0.198874 -0.34852 0.0476972 -0.347593 -0.936432 -0.97032 0.0179273 -0.241157 -0.95833 -0.284955 0.0201356 -0.906596 -0.289988 0.306579 -0.407122 0.912685 0.0354508 0.55373 0.532881 -0.639861 0.644457 -0.149556 -0.749872 0.710698 -0.509324 0.485281 0.231797 -0.930369 -0.28405 -0.774637 -0.0700829 0.628511 -0.54837 0.823247 0.146816 0.329948 -0.52722 0.783054 -0.222236 0.763025 0.606963 -0.935807 0.221896 -0.273912 0.92766 -0.199227 0.315841 -0.445338 0.128573 0.886083 -0.931252 0.29704 -0.211039 -0.498959 0.0639873 0.86426 0.293396 0.164015 0.941816 -0.512426 -0.857057 -0.0535913 0.677405 -0.706841 -0.20371 -0.406976 0.325294 0.853554 -0.489926 -0.747244 -0.448998 0.0890142 -0.991056 -0.0994169 -0.419581 0.274402 -0.865249 0.998564 0.0440023 0.0305691 0.657947 -0.225956 0.718366 -0.168251 0.805106 0.568767 -0.268954 -0.749618 -0.604761 0.290677 -0.95247 -0.0911467 -0.41595 -0.549002 0.72497 0.593159 0.804267 0.0362879 -0.0332912 -0.53397 -0.844848 0.407659 0.33328 0.85014 -0.575523 0.799111 -0.173768 0.906368 0.418454 0.0582504 0.435076 -0.804348 0.404639 -0.943788 -0.326188 0.0535309 -0.283562 0.824293 -0.490035 -0.528197 0.244582 0.813135 0.626048 0.711243 0.319684 0.735951 -0.629709 -0.248683 0.501382 0.0570547 0.863343 -0.417367 -0.0852831 -0.904727 0.233832 -0.825522 0.51365 -0.288956 0.599569 0.746338 -0.894555 0.223825 0.386878 0.249058 0.521675 0.815981 -0.065035 -0.629812 0.77402 -0.966924 -0.227001 -0.116309 0.918777 -0.204129 0.337905 0.638728 -0.49339 0.590418 -0.324204 -0.865363 0.382151 -0.297194 0.777234 -0.554602 0.298407 -0.7929 0.531285 -0.819114 -0.361651 -0.445265 0.900133 0.435025 0.0226724 -0.722524 0.293735 0.625842 0.197133 -0.97356 0.115412 0.106453 0.21617 -0.970535 -0.632463 0.758663 -0.156272 0.339106 -0.529704 0.777445 -0.252528 0.840859 0.478733 0.402518 -0.572209 -0.714533 0.611154 -0.411517 0.676124 -0.849577 -0.435969 0.296901 0.493027 -0.638589 0.590871 0.696829 -0.552655 -0.457166 0.704985 0.660965 -0.257141 0.659695 -0.670227 0.339997 0.617883 0.45643 -0.640228 -0.918373 -0.319396 0.233619 -0.592415 0.602259 -0.535097 0.430072 -0.0120627 0.902714 0.13132 -0.867534 0.479729 -0.298752 -0.855471 -0.422985 -0.575468 -0.440647 -0.688961 0.151102 0.980825 -0.123091 -0.420059 0.170037 -0.891424 0.382227 -0.758796 0.52738 0.938964 -0.230881 0.25503 0.731217 -0.15895 -0.663367 -0.71274 0.652 0.258644 0.355526 -0.0341551 0.934042 0.955856 -0.244823 0.162483 -0.326787 0.82446 -0.462034 -0.900323 -0.399521 0.172631 0.854873 0.278864 0.437523 -0.576703 0.143207 -0.804304 0.358926 -0.211436 -0.909102 0.250784 -0.529249 0.810557 0.0718686 -0.527268 0.846654 -0.696538 -0.716365 0.0406893 0.450482 0.825875 0.33911 0.563692 0.638019 -0.524579 -0.0830301 0.440975 0.893671 -0.747723 0.604554 0.274635 0.267993 -0.872768 -0.407989 -0.715575 -0.0704656 -0.694972 -0.853872 -0.431228 -0.291453 0.310377 0.760328 0.570585 -0.923494 0.380563 0.0482812 -0.707792 -0.147727 0.690802 0.214633 0.550577 -0.80672 -0.770523 0.568594 -0.28809 -0.753597 -0.603092 0.26148 0.575748 0.664765 0.476028 0.832745 0.451244 0.320802 -0.531936 0.840168 -0.105649 -0.087372 0.982578 0.164031 -0.550105 0.562919 -0.616853 0.364044 0.919357 0.149181 -0.58443 0.779907 0.224023 0.918339 0.0612966 -0.391021 -0.772573 -0.368849 -0.5168 -0.243243 0.692899 0.678766 0.480169 0.537767 0.692997 -0.521479 0.775851 -0.355127 -0.275311 -0.230013 -0.933433 -0.0680557 -0.976241 -0.205723 -0.0589782 0.772399 -0.632393 -0.73646 0.298044 -0.607286 -0.664815 -0.727117 0.171235 0.537409 0.259436 -0.802424 -0.869942 0.323998 0.371788 -0.294081 -0.291062 0.910384 0.57586 -0.61506 0.538596 0.730451 -0.397108 0.55565 0.0588799 0.945354 0.320686 -0.796242 0.0638