# vtk DataFile Version 4.0
Generated by libgran
ASCII
DATASET POLYDATA
POINTS 150 FLOAT
-0.529108 10.7079 3.99989 -1.65525 11.6816 5.00042 -0.066031 11.6704 5.26103 -0.822245 9.3238 4.01685 -0.415997 8.53785 4.8931 0.731367 7.48625 4.72601 -0.260975 5.35768 3.36219 -0.484771 5.40365 4.87506 0.95834 5.70086 1.84639 -0.708199 5.05272 6.15257 -1.97072 4.75268 7.40297 -2.20539 3.99335 6.22734 -3.28252 5.45243 7.81098 1.90809 5.05216 1.20677 3.1802 4.73825 1.20677 4.4929 4.5377 1.43165 4.86466 3.39173 2.77181 5.15691 2.90113 1.43165 -4.77066 6.52198 7.78188 -2.30238 9.70119 8.28 -2.9774 8.28042 8.74601 -3.32963 11.1785 8.18074 -3.67159 12.5048 8.00543 -4.07034 13.7021 7.89227 -3.642 13.1214 6.89645 -4.87768 15.0329 8.32761 -3.33348 12.3972 5.73561 1.06698 12.2449 5.13341 1.49808 13.4217 4.94153 2.30604 14.4699 5.0324 0.749976 14.4217 4.93946 4.04755 14.3918 4.5757 4.92084 15.046 4.69203 5.39353 16.6061 5.36349 2.03289 15.9101 1.97051 1.4689 16.9374 2.76326 0.873345 18.4149 1.79275 1.05073 16.3107 3.51274 1.60653 18.7771 0.999998 1.01218 19.4807 1.76927 0.7495 20.5022 1.97669 -0.508445 21.7599 1.68783 -0.328102 22.8875 1.48041 0.141821 15.6215 4.2001 -2.41642 2.72578 6.25854 -0.926716 1.83787 6.96961 0.874115 2.59878 9.76125 -0.25256 1.42444 9.44872 0.0573341 2.00195 8.23721 0.27236 0.0869209 9.56351 -1.19924 1.02333 10.3544 -0.305475 0.425718 10.6595 -0.126011 1.26673 6.3916 6.86677 17.6082 4.31022 6.33111 18.781 4.893 5.96707 17.6388 5.11069 6.18719 20.2398 5.1567 8.22354 21.5952 3.81371 6.48401 21.2883 4.17053 5.51014 21.9815 4.9675 5.75248 17.1317 6.97622 5.75005 1.16114 1.29472 6.58804 -0.283925 2.285 7.45598 0.00892373 2.92568 8.59498 0.815705 3.60221 1.67109 -2.70579 12.6729 1.44705 -3.75315 12.0089 0.854298 -1.98051 12.4208 1.94178 -4.78812 11.0119 1.37827 -4.51246 9.32252 4.66245 5.04978 17.093 4.52509 6.92879 16.4782 3.87362 3.88582 16.8183 4.05128 4.16018 18.2845 3.97374 7.49473 15.3747 3.6477 6.94512 13.5385 6.71134 8.15129 14.8964 5.30115 8.00896 16.0093 3.79466 2.96122 15.8781 2.42279 4.1579 15.7 3.07974 3.33599 18.8313 -0.609648 3.84693 14.0092 0.858426 4.6402 14.6897 -1.78187 3.85823 13.5676 -1.9782 2.67366 14.3837 -0.814744 2.61822 13.0717 -0.199649 1.24078 11.9458 0.386754 -0.372656 12.2129 0.0655483 -1.6859 13.1625 -0.98012 -1.60081 14.1296 -1.12839 -0.653363 15.7052 -0.184814 -1.06705 16.675 5.09548 -8.52987 71.6133 3.59837 -9.7004 71.2972 4.31201 -9.88169 71.9709 3.53858 -8.29405 71.2324 6.29075 -8.74064 72.3403 7.20424 -8.6093 73.1993 7.42635 -9.63047 72.5811 3.71911 -10.6254 71.6685 2.56546 -11.2147 70.5338 1.93465 -7.79182 71.1286 1.39667 -11.3054 69.9913 1.28904 -10.4522 69.1456 1.46876 -12.6477 70.4332 1.92511 -9.84683 67.4796 2.37005 -8.58527 66.9341 1.41606 -8.60499 66.3138 2.36754 -9.4804 68.7729 8.51893 -10.6017 71.4596 8.46151 -12.2727 70.7874 8.42869 -13.5675 71.6633 8.90553 -13.5587 73.4759 7.95631 5.1005 59.1969 7.0336 4.47699 60.0697 6.31834 2.69611 60.2316 4.04475 2.18738 62.9948 4.23439 0.59328 63.4458 5.24119 2.01453 60.2731 3.46424 2.00915 60.573 6.07692 1.00591 59.7576 3.08934 2.27732 61.7305 1.67508 1.49936 60.8408 4.73222 -0.79947 63.7109 4.36178 -0.999262 62.6969 5.24116 -2.20229 64.0468 0.551046 0.526949 61.2742 5.03699 -5.21863 60.6258 6.62866 -4.39733 60.7246 4.56205 -5.05268 61.7533 6.81934 -3.48108 61.8483 5.5174 -2.30922 62.2773 5.59218 -3.06318 63.2382 5.57323 -3.72062 62.4865 2.52704 -3.70228 65.1547 2.82085 -3.88894 66.5984 1.41965 -4.47888 65.7 3.98939 -3.40786 64.1436 4.92656 -3.81348 63.242 3.35097 -3.07012 67.1867 1.2672 -5.9988 64.9585 0.307213 -7.45076 66.7842 1.304 -7.28997 65.2915 3.45717 -2.16212 68.1176 4.03451 -1.85946 69.9545 3.46963 -1.94838 71.3288 2.13605 -3.15237 71.4685 3.6761 -0.673729 70.8965 1.41977 -3.81343 72.13 -4.66469 18.2733 10.1721 

POINT_DATA 150
FIELD FieldData 1
normals 3 150 double
0.241745 -0.781441 -0.575247 -0.884398 0.19228 0.425286 0.704822 0.181031 0.685896 -0.534882 -0.602652 0.59221 0.941129 -0.1833 0.284037 -0.206235 0.868305 0.451124 0.731536 0.129415 -0.669408 0.50774 0.175383 0.843469 0.48778 0.213762 -0.84639 -0.731168 -0.526317 0.434032 -0.531357 0.226279 0.816368 -0.766026 -0.533049 -0.359254 -0.780434 0.473467 -0.408352 0.461966 -0.862458 0.206771 0.810154 0.54854 -0.206771 -0.502537 0.74909 -0.431649 -0.130768 -0.396874 0.90851 0.161474 -0.887471 -0.431649 -0.707709 0.596086 0.379248 -0.170395 0.968422 -0.181999 -0.845412 -0.452342 0.284018 -0.856856 0.508873 0.0827411 0.514901 0.81749 -0.258046 -0.913656 0.379792 0.144885 -0.485309 -0.200965 -0.850934 0.106315 0.950966 0.29045 -0.793828 0.523254 0.309907 0.428191 0.393502 -0.813516 0.00290354 0.7833 0.621637 0.805064 0.264868 -0.53077 -0.751004 0.216743 -0.623711 0.936439 -0.34292 0.0740751 -0.0631442 0.99711 0.0422481 0.535833 0.563004 0.629213 -0.21609 0.106789 0.970516 0.347903 -0.920523 0.177766 -0.24765 0.556971 -0.79275 -0.766066 0.293753 0.57171 -0.980836 0.194834 -2.66965e-08 0.386481 0.508778 0.76927 -0.649157 0.512758 -0.561849 -0.608788 0.744886 0.272986 0.789131 0.382728 -0.480407 -0.142848 -0.982965 0.115648 0.554997 -0.734523 0.390455 0.934709 -0.153386 0.320612 0.767439 0.279366 0.577054 -0.359235 -0.894971 0.26453 -0.0493417 -0.317463 -0.946986 -0.884155 0.442547 0.149744 -0.587441 0.493866 0.6411 0.306319 -0.103749 0.946258 0.134004 0.417753 0.898624 -0.861991 0.500322 -0.0815451 0.326332 0.672448 0.66432 -0.0377057 -0.469718 0.882011 -0.470254 0.786365 -0.400613 0.972454 0.0448201 0.228746 -0.767077 -0.262119 0.585566 -0.206793 0.955271 0.211411 -0.17689 -0.0374432 0.983518 -0.431667 0.852527 -0.294723 0.406329 -0.592534 0.695557 -0.461611 -0.885383 0.0548811 0.677389 -0.0786014 0.731414 -0.735161 -0.18794 -0.65132 0.511117 -0.859417 -0.0126891 -0.081634 0.913224 0.399197 0.0163823 0.175559 0.984333 -0.547134 0.451225 -0.705011 -0.0539849 -0.930542 0.362185 -0.191339 0.948473 -0.252565 -0.734846 -0.233417 -0.636803 -0.557181 0.0409443 0.829381 0.360019 0.382534 0.850914 0.0339843 -0.167073 -0.985359 0.442804 0.0106331 -0.896555 -0.967392 -0.131699 0.216353 0.655888 -0.691185 -0.303437 -0.715984 0.505496 -0.481498 0.414363 0.865131 0.282582 -0.619698 -0.770073 -0.151536 0.848377 0.0231977 0.528884 -0.552529 0.781375 -0.290111 -0.74885 -0.403194 0.525983 0.414602 -0.458633 -0.785978 -0.200493 0.918809 0.339989 0.38591 -0.694625 0.607099 -0.707115 -0.618618 0.342491 -0.338553 0.703712 0.624637 0.190286 0.243731 0.950992 0.753288 -0.657422 0.0187949 0.904207 0.426872 0.0137457 -0.594095 -0.745155 -0.302977 0.120258 -0.921278 0.369845 -0.652686 0.662693 -0.367204 -0.291062 0.637643 -0.713228 0.622428 0.76898 0.145783 0.84454 -0.252187 -0.472392 0.71507 -0.181652 0.675039 -0.440001 -0.77061 -0.461041 -0.951247 -0.160464 0.263401 0.728797 -0.679867 0.0814667 0.621174 0.173346 -0.764261 -0.656705 -0.662412 0.360483 -0.0148913 -0.432027 0.901738 0.430046 0.829529 0.356289 -0.523945 0.80981 -0.263989 -0.457327 -0.798456 -0.39156 0.248041 -0.719066 -0.649168 -0.305465 -0.951925 -0.0230206 0.27265 -0.34282 0.898964 0.204193 0.351554 0.913627 -0.341549 0.188872 0.920691 0.581157 0.812382 0.0478798 -0.134102 -0.968501 0.209813 -0.496424 0.650416 -0.57491 -0.306785 -0.943681 -0.12389 0.943056 -0.286923 0.168289 -0.833888 -0.292302 0.468177 -0.107319 -0.721697 -0.683839 0.458988 0.560471 0.689349 -0.955276 -0.217491 -0.200365 0.804467 -0.44899 0.388897 0.434123 -0.648791 -0.624986 -0.295681 -0.953812 -0.053063 0.168756 0.754923 -0.63373 -0.821072 -0.416094 0.390778 0.771726 0.405788 0.489669 0.345387 0.581461 0.736622 0.580392 -0.510681 -0.634311 -0.72154 0.661177 -0.205488 -0.647459 -0.0929769 0.756408 -0.663628 -0.748053 0.0037713 0.506245 0.0426129 -0.861336 0.800054 -0.144042 0.58238 -0.601145 -0.733984 -0.316059 0.956109 0.25181 -0.149826 -0.0189663 -0.658209 -0.752597 -0.26993 0.962862 0.00590108 0.448695 -0.785942 -0.425403 0.584897 -0.344422 -0.734349 0.411892 0.505219 -0.758353 0.376132 -0.054871 0.92494 0.201205 0.357531 0.911969 0.766091 0.44645 -0.462371 -0.567485 -0.757533 -0.322654 -0.55962 0.828204 0.0300548 -0.148799 0.0964648 0.984151 0.475171 0.854286 0.210733 