# vtk DataFile Version 4.0
Generated by libgran
ASCII
DATASET POLYDATA
POINTS 1686 FLOAT
-32.8424 2.33407 6.38583 -31.4209 1.5106 7.39676 -33.7367 2.47882 4.84836 -32.5344 3.36527 5.83338 -33.6058 -0.89897 7.65347 -34.3626 3.07552 3.87952 -30.6234 0.315266 12.0365 -30.2488 -1.36209 12.4404 -31.3379 0.961844 11.1202 -31.4463 -0.0898064 9.67653 -31.0571 1.60155 9.72921 -30.5859 1.80128 8.52225 -29.4394 -3.02397 14.8412 -28.7405 -2.54349 13.817 -28.9071 -1.41146 13.891 -28.4606 0.236194 13.4911 -27.8043 0.539389 14.182 -27.9672 1.17881 12.8176 -31.219 -3.79686 12.9951 -32.9557 -4.66855 14.6366 -32.0187 -4.02551 13.9463 -31.96 -4.45698 15.6401 -33.837 -5.16903 13.7684 -31.1569 -4.78368 16.4868 -31.4672 -3.50496 17.1233 -31.7172 -3.10645 18.234 -30.4163 -2.99987 18.4476 -29.806 -4.44506 21.1249 -30.9569 -3.66078 21.7946 -30.2662 -3.59623 20.077 -29.5376 -5.62521 21.6755 -30.4059 -7.20927 21.5478 -30.6338 -3.5723 23.4447 -29.5623 -3.98696 18.7256 -29.8261 -7.97737 19.5849 -30.4642 -9.25309 19.5146 -28.5241 -8.20701 19.4426 -27.423 -8.17483 19.3159 -27.0647 -6.75098 20.3742 -27.7671 -6.07583 21.8214 -26.9437 -5.28068 20.3068 -29.5614 -10.1548 20.5864 -21.2067 -12.6353 23.0145 -22.1452 -12.2289 22.1648 -23.484 -13.0472 22.2887 -20.6395 -11.6527 24.6498 -21.9866 -11.4564 25.148 -24.972 -13.8219 22.6125 -26.7881 -11.6877 19.7087 -25.7988 -11.3781 18.7615 -26.3631 -12.7445 20.3948 -27.831 -12.3086 20.7759 -25.6309 -13.6233 21.532 -28.6138 -11.1225 21.4077 -25.0211 -12.8693 17.982 -25.1566 -14.2961 17.0721 -24.4451 -16.3943 18.0673 -24.1984 -16.5165 16.7662 -25.2993 -15.5931 16.7757 -23.0194 -15.7875 18.8337 -22.3798 -16.3401 16.224 -21.4243 -15.7033 19.1961 -21.5016 -16.6808 19.7636 -21.7808 -15.5451 12.1613 -22.8717 -15.9016 12.0551 -22.9117 -14.2553 12.3882 -20.5022 -15.6713 12.504 -20.5966 -16.7415 11.2437 -20.2236 -15.0426 14.237 -20.9288 -15.3739 15.6662 -36.7102 16.4152 3.56011 -37.4166 15.913 1.77508 -37.4135 14.9277 1.60406 -35.4676 16.9256 4.42024 -34.6942 16.7787 5.18475 -33.7733 17.0879 4.94753 -33.9257 16.571 5.7899 -40.6248 15.4105 2.01966 -41.5982 16.1445 1.49077 -39.7389 16.7304 1.34207 -39.755 15.0304 2.5983 -40.8267 13.6426 2.26679 -41.5268 12.6234 2.8114 -42.1425 11.5441 3.63281 -46.4437 12.1911 3.93284 -46.8131 11.2388 3.35453 -47.2704 13.487 3.21447 -45.6005 13.7411 4.87145 -43.091 11.0572 3.72871 -42.3395 9.98989 2.78112 -42.937 10.2307 1.62192 -42.773 9.26703 1.02956 -42.3903 8.52129 2.3714 -43.0414 11.6907 0.644661 -44.3822 10.7259 1.37138 -43.4014 12.0647 -0.589869 -42.5801 7.07384 1.97651 -42.5883 7.08441 3.597 -45.1247 8.58501 -4.87641 -44.49 8.31262 -6.01258 -45.4385 6.85909 -5.56038 -45.95 10.1254 -6.40341 -46.778 9.56601 -6.78435 -46.7203 10.3477 -5.05562 -48.0409 9.18577 -7.22805 -47.5483 9.7884 -5.43656 -46.3512 5.36285 -5.1224 -45.9672 10.6661 -3.04493 -46.8692 10.6548 -4.03629 -45.85 10.6506 -1.82347 -46.0026 10.4777 -0.722911 -46.5844 10.157 0.179398 -45.6128 10.006 0.592198 -47.6684 11.5137 0.163714 -45.6938 11.3105 1.73414 -44.4116 4.85534 -8.04183 -43.4555 5.01948 -9.45007 -43.6481 3.81792 -7.90481 -44.6112 6.09434 -7.60231 -45.0376 7.32521 -7.93008 -46.6296 7.24373 -7.50549 -43.9647 2.2604 -7.31923 -47.7985 6.80006 -7.80087 -45.9355 1.93901 -3.91967 -45.3551 3.14903 -4.09779 -46.5458 3.77542 -4.36719 -44.2285 4.32274 -4.45536 -25.0323 13.745 19.9889 -25.5937 14.4987 20.9295 -24.2065 15.0566 20.3547 -26.2922 12.799 18.9903 -27.989 12.7072 20.5276 -28.3746 10.3686 18.3429 -28.9454 12.0701 17.815 -28.8803 9.22999 18.0451 -28.128 8.48702 18.2866 -28.3008 12.2682 17.0765 -30.3614 8.46917 18.46 -29.7703 9.39315 16.8865 -30.4734 7.82046 20.0135 -25.9218 5.23566 12.4785 -25.6699 4.15838 12.216 -26.2953 6.29683 13.1873 -27.7964 5.52441 13.0002 -27.046 3.25111 12.922 -26.8051 3.04246 11.4539 -27.3531 2.48633 14.2565 -26.4449 2.32284 10.2686 -26.1219 2.55217 9.27023 -28.8974 9.33329 15.6431 -30.1665 9.26359 15.2526 -27.8094 9.72058 14.8577 -30.2278 7.9378 14.0615 -31.422 9.27088 14.3014 -30.705 6.6967 13.8294 -29.307 6.32016 13.4069 -33.7283 7.44195 5.44784 -34.9101 6.97488 5.05643 -33.0795 8.31416 5.91364 -32.6063 6.6953 6.49326 -36.4811 6.5017 6.08176 -34.3798 4.90011 6.79946 -37.6807 7.10981 5.89141 -37.8275 7.12949 4.38388 -40.9677 6.0789 5.30954 -39.455 5.50956 5.04499 -42.195 6.57014 5.17661 -42.9318 5.97277 3.60341 -38.5688 6.85524 3.70855 -38.6528 4.78542 6.15605 -32.0684 6.55416 11.6882 -31.6813 9.0475 11.1128 -32.7915 9.05669 12.4667 -32.8449 9.20482 13.5627 -33.5126 8.06659 13.8998 -31.9349 10.7512 13.9071 -33.7744 6.64316 14.3396 -34.3811 4.09367 9.36152 -33.7511 3.94051 10.5224 -33.7415 4.37895 7.50279 -32.9669 4.18735 11.6521 -25.6016 22.9956 29.1912 -26.01 21.7351 29.7483 -25.6332 22.6061 30.7812 -25.3327 23.1153 27.8945 -25.7546 24.5997 28.4436 -26.5357 25.7713 28.4545 -22.8035 23.259 29.1456 -22.5184 23.5995 31.4484 -23.393 24.2515 32.5807 -22.2206 23.3189 30.1833 -21.7618 22.9723 29.2332 -23.5871 25.1064 29.618 -23.3868 24.4422 33.8031 -25.4372 27.3775 33.8241 -25.1204 28.3863 34.6332 -26.1455 29.1907 33.8523 -25.7435 26.6924 33.0081 -24.7693 26.0032 32.7834 -23.5812 29.019 35.6789 -25.467 25.0926 32.1428 -20.9039 25.9632 36.3619 -20.9862 24.7088 36.7953 -20.8045 27.042 36.1614 -19.8521 27.828 36.9248 -20.8628 28.5479 36.2845 -18.3715 27.6709 37.8138 -18.4909 28.8175 37.2007 -21.8525 29.4284 35.9082 -19.8969 29.5383 35.6419 -27.7465 23.5833 33.9303 -28.2637 25.8299 34.22 -30.326 24.7793 36.3191 -30.1737 23.6229 35.5056 -29.7496 22.9022 33.7971 -26.4351 23.3514 33.8495 -31.4068 20.5346 31.9642 -32.0317 21.4173 33.3903 -30.1405 20.3437 31.6017 -29.2714 20.048 31.2053 -32.1764 22.4994 34.6135 -33.0545 22.0389 34.4837 -34.8523 22.4495 34.2847 -35.6024 22.2831 32.9927 -35.1765 21.4078 32.5572 -36.625 23.6025 32.1359 -37.1136 23.4601 33.7802 -37.5835 24.1044 32.7536 -36.241 21.5513 34.3745 -37.2039 24.5238 35.3283 -37.3959 25.4643 33.3879 -41.1464 25.0573 36.6322 -40.6042 26.1504 36.1038 -39.6291 25.3829 35.6564 -38.2287 25.3762 35.3776 -41.06 25.7719 33.6967 -37.1148 25.6023 35.0081 -33.7675 6.86671 23.5036 -33.5636 5.67228 24.05 -35.0738 6.61535 24.4978 -32.5897 7.13715 22.3814 -33.8515 8.2025 22.9079 -31.171 6.26041 21.5465 -30.3004 5.86883 20.4519 -30.8486 5.16338 19.737 -29.3252 5.76167 19.3789 -31.3803 4.16291 19.041 -30.964 3.4992 20.2443 -27.4263 4.68385 18.133 -27.2728 5.78474 17.9158 -38.5539 6.86743 24.3186 -38.7678 5.88937 25.1936 -40.2378 5.40017 24.6996 -38.9251 8.17033 24.9527 -40.2917 7.78813 24.566 -37.1108 5.1254 21.7576 -37.3067 6.48408 22.8034 -36.2744 4.71642 22.3862 -35.4645 4.31316 22.8123 -34.1104 5.10805 21.8179 -34.396 3.74526 22.9355 -29.5127 15.4555 23.5234 -30.5451 15.3534 24.3551 -29.2221 15.1243 25.3696 -28.4925 15.1599 22.68 -29.4555 14.7426 21.7678 -31.5695 16.0589 24.681 -31.1223 17.1109 26.0187 -30.0551 17.885 27.4376 -32.0561 9.5855 21.298 -30.9162 9.51993 21.9351 -30.6004 10.7168 21.0559 -33.1935 10.2622 21.4275 -33.7714 9.08199 22.1335 -29.3685 11.1061 21.6438 -29.4561 12.102 21.6662 -28.981 19.3088 27.7812 -28.9558 17.7347 27.6011 -29.7617 19.5155 29.9617 -31.1637 19.4397 28.888 -28.5563 16.2441 27.8429 -27.7566 15.2371 28.7489 -30.9138 19.5741 26.5173 -31.8575 18.9904 27.5903 -30.8243 20.9007 26.5355 -32.3471 21.5716 26.081 -33.963 21.382 26.1197 -33.8332 22.5625 24.2962 -6.51574 25.0487 41.7946 -5.56688 24.9172 42.0816 -7.80689 24.7359 41.6908 -6.03934 24.1981 41.572 -8.60501 26.0688 42.4721 -9.47383 24.6393 41.9307 -9.42064 25.7404 41.9958 -9.40006 26.6669 42.3714 -5.48569 23.1653 42.0362 -4.259 23.6297 41.516 -5.29645 21.4638 42.3483 -10.2708 23.6958 40.8686 -7.06453 20.0487 43.6298 -6.83712 20.8222 42.3204 -8.14412 19.1163 43.8603 -8.81351 18.2743 44.1749 -4.99845 20.8694 43.4189 -1.64192 24.723 42.7863 -2.56013 24.8888 41.839 -2.96317 23.7176 41.8862 -0.27387 26.0013 42.6533 -2.16624 26.409 41.249 -3.24244 22.4891 41.8589 -2.03969 28.2183 41.2899 0.969772 30.1491 41.8748 1.38599 28.9715 42.9431 -1.71843 29.7676 40.7119 2.42746 28.2676 42.4626 -2.86881 29.5139 41.9473 -21.3649 33.5604 42.6864 -20.0867 33.2069 42.5899 -21.6089 33.9354 44.3289 -22.5818 32.9331 43.0121 -19.0817 32.6093 45.357 -19.6849 33.2522 46.7438 -18.3271 31.7389 44.062 -15.8397 30.3974 42.6295 -16.7534 30.4784 43.5921 -15.024 28.9702 42.8179 -17.8279 30.4749 43.6652 -17.8992 29.52 44.815 -16.9803 28.8805 44.4466 -13.9469 29.0153 43.7481 -14.8572 28.7075 44.3634 -17.9755 28.9892 46.3147 -12.2735 25.5968 45.3476 -13.5252 26.0404 45.4475 -11.9684 25.8843 44.4397 -11.2971 25.6233 45.1334 -13.877 27.1963 46.2652 -14.502 26.3574 47.1493 -14.3722 28.6278 45.7734 -11.0859 26.8882 44.0363 -15.8998 28.5368 45.0295 -10.4214 28.4509 41.6268 -9.90906 27.2192 41.5339 -11.2101 28.3338 42.9639 -11.2689 29.3315 42.9286 -11.9794 28.5961 41.4394 -11.2387 28.8633 43.8117 -20.199 36.4582 39.422 -20.2673 36.9245 37.5753 -19.5116 37.3079 40.1802 -19.7926 38.8159 39.6844 -19.4849 38.8053 40.6358 -20.2037 39.439 40.3498 -20.4576 40.4198 39.6347 -19.8848 36.3868 36.6814 -21.0561 37.6061 36.7324 -19.3174 40.2206 41.1071 -21.3089 43.1151 43.0217 -22.8242 42.2268 42.4864 -23.2119 42.9423 43.3207 -22.75 41.1365 41.3389 -24.1543 41.0767 42.464 -21.2729 41.0772 40.2543 -19.5713 41.2013 40.392 -23.9116 45.0061 44.0549 -22.99 45.5557 42.5954 -23.2824 45.12 45.2207 -24.0814 43.7323 44.3162 -22.8953 45.3735 41.3458 -22.0571 46.6133 41.9344 -22.7141 43.218 47.0123 -23.3688 42.9151 50.2989 -23.1233 44.003 49.5749 -24.4355 44.5141 50.0427 -22.1057 43.7699 48.4193 -20.9758 45.0727 47.9381 -25.5555 44.7811 49.6978 -16.8103 29.2894 40.1883 -16.0089 28.777 39.2593 -16.1813 30.0597 38.7238 -15.7919 27.2824 39.6727 -17.2072 30.0719 37.6129 -14.9466 27.0919 41.0861 -13.4865 27.9338 41.2473 -18.52 29.721 36.5085 -18.7105 30.5705 35.1021 -17.9925 29.8889 35.2428 -17.7877 30.7374 34.7549 -19.1326 31.9648 36.5108 -18.8146 31.6666 37.6736 -21.7806 30.6183 37.7486 -22.1867 31.5034 36.4016 -22.6945 35.0649 41.2746 -24.2133 34.2091 41.3798 -21.8762 34.1537 40.7566 -22.084 33.7464 39.5597 -25.1057 32.5226 41.7081 -25.6246 3
[...]
POINT_DATA 1686
FIELD FieldData 1
normals 3 1686 double
-0.533802 0.506007 -0.677504 0.887717 -0.317469 0.333426 -0.360487 -0.361255 -0.859967 0.841746 0.525192 0.125048 -0.824943 -0.520935 -0.219306 -0.265459 0.957955 -0.108875 -0.576703 0.814762 0.0598051 -0.20215 -0.862592 0.463756 -0.137783 -0.168184 -0.976079 0.029366 -0.883466 -0.467574 0.418544 0.80789 -0.414892 0.0527154 -0.608155 -0.792066 -0.155372 -0.935115 0.318463 0.543454 -0.454638 -0.705664 0.376919 0.677393 -0.631721 0.069572 0.970264 0.231834 -0.586732 0.667069 -0.45909 0.423795 -0.0276457 -0.905336 -0.86115 0.455923 0.224846 -0.998487 0.0415217 -0.0360532 -0.0614722 0.68457 -0.726351 -0.00273951 0.253097 0.967437 0.117212 -0.541997 -0.832166 0.805764 -0.5798 -0.120732 0.495486 0.698919 0.515757 -0.745448 -0.300408 0.595031 0.555475 -0.193823 0.808628 0.865595 -0.446293 0.227084 -0.285378 0.337979 0.896844 0.405385 0.402537 -0.820748 -0.597263 -0.733864 0.323607 -0.270983 -0.850191 -0.45138 0.608533 -0.249495 0.753286 0.298464 -0.793268 -0.530702 0.796851 0.374705 0.473947 0.158677 -0.901016 0.403723 0.505076 -0.604344 -0.61617 0.596046 0.63652 0.489461 -0.237702 0.787334 0.568862 -0.464716 -0.11218 0.878325 0.35864 0.682971 -0.63634 0.744161 -0.000709166 0.668 -0.272483 0.913361 -0.30253 -0.666025 -0.506956 -0.547181 -0.672764 -0.311346 0.671158 0.85244 0.52273 -0.0100103 -0.494719 0.718992 0.488163 -0.815252 -0.463326 -0.347408 -0.463649 -0.839938 0.282016 0.525673 -0.530269 -0.665193 0.88865 -0.216836 0.404082 -0.579244 0.219087 0.78516 -0.156375 -0.661926 0.733076 -0.203488 0.966991 -0.153365 0.252006 -0.960944 -0.114364 -0.38751 -0.465827 -0.795513 0.609305 0.0299386 0.792371 0.855975 -0.0922542 -0.508719 -0.244873 0.831193 -0.499155 0.81639 0.576919 -0.0259209 0.962654 0.268656 -0.0334939 0.778746 -0.492725 0.3883 0.856085 0.484758 -0.179242 0.783166 -0.388572 -0.485452 -0.307735 -0.745088 -0.591728 -0.34773 0.901233 -0.25858 0.495391 0.26243 0.828081 0.400951 -0.807767 -0.432147 -0.216782 0.366246 0.904914 -0.488377 -0.697562 0.524304 0.316868 0.140481 0.938009 -0.389538 -0.361687 -0.84702 -0.392697 0.623556 -0.675993 0.925767 0.369988 -0.077877 -0.15243 -0.516882 0.842376 0.768524 -0.207737 0.605158 0.920954 0.309146 -0.23722 -0.0213967 -0.833032 0.552811 -0.994803 -0.0989662 0.0239253 0.864518 0.486868 -0.124771 0.891166 0.452942 0.0258335 -0.180536 -0.934863 -0.305676 -0.519531 -0.0843128 0.850282 -0.096188 -0.994944 -0.0288719 -0.513437 0.849699 0.119979 -0.882839 -0.102622 -0.458327 -0.313199 0.446176 -0.838352 -0.484347 0.873136 0.0551394 0.852292 -0.507967 -0.124772 0.100822 0.559291 0.822817 -0.496677 0.800099 -0.336384 -0.332692 -0.163571 -0.928741 0.0500383 -0.909308 0.413104 0.392249 0.659867 -0.640871 -0.948494 -0.304942 0.0858463 -0.752227 -0.285874 -0.593658 -0.239875 -0.538143 -0.807999 -0.248031 -0.527579 0.81249 -0.145783 0.859083 0.490636 0.488956 0.586691 -0.645535 -0.459571 -0.866843 -0.193334 -0.0968603 0.655649 0.748828 -0.924873 0.0962977 0.367883 -0.673449 -0.433257 0.598962 -0.338004 -0.476534 -0.811584 0.154566 0.126094 0.979903 -0.453106 -0.629399 0.63131 0.377368 -0.729088 0.570985 -0.524596 -0.74033 -0.42037 -0.260154 0.713581 0.650478 0.10759 -0.886482 0.450082 -0.689419 0.565855 0.452227 0.282152 0.414871 0.865027 -0.394573 0.790804 -0.467911 -0.363161 0.889626 0.27691 -0.687466 0.384163 0.616286 0.268673 0.548296 -0.791951 0.0760449 -0.653256 0.753308 0.487863 0.854836 -0.176764 -0.914222 0.376027 -0.151003 -0.677783 -0.4575 0.57559 -0.392635 -0.90427 -0.167731 -0.491143 0.0138278 -0.870969 -0.351747 0.878376 -0.323619 0.932118 0.331643 0.145494 -0.258503 0.958031 -0.123903 0.19457 0.842067 -0.503057 -0.391953 -0.505679 -0.768545 -0.953338 0.248104 0.172021 0.433841 0.80594 -0.402794 -0.867888 -0.44025 -0.230111 -0.784245 -0.151101 -0.601771 0.434 -0.899332 -0.0533523 -0.136772 0.802122 -0.581286 -0.939655 -0.239319 -0.244488 -0.187342 -0.98229 -0.00299377 -0.781358 0.603968 0.157172 -0.541485 -0.521501 0.659416 0.0496416 0.402481 -0.914081 0.429505 -0.127212 0.89406 -0.90032 0.316885 0.298341 -0.648464 -0.760399 0.0358739 0.526812 0.744282 0.410503 -0.974324 -0.0281418 0.223383 -0.727574 -0.146866 0.670124 -0.48674 -0.355521 -0.797928 0.420392 -0.617916 0.664417 0.846961 -0.3641 -0.387413 -0.523988 0.59343 -0.610964 0.823271 -0.462347 -0.329333 -0.445832 -0.532047 -0.719833 0.264723 0.849637 -0.456113 0.384521 -0.793737 -0.471302 -0.809676 0.539344 -0.231373 -0.861751 -0.447367 0.239266 0.536272 -0.823901 -0.183303 0.45953 -0.0142887 0.888047 -0.722255 -0.48136 0.496629 0.189245 0.886503 -0.422254 0.662481 -0.732362 0.157367 -0.848769 0.0081797 0.5287 0.940514 -0.263532 -0.21444 -0.350788 0.599935 -0.719045 0.203959 -0.580253 -0.788484 -0.585852 0.504555 0.634195 0.926909 -0.0647766 0.369654 -0.641365 -0.0133115 -0.767121 -0.0954828 -0.584061 -0.806074 0.945283 -0.306001 -0.113148 -0.124766 -0.659363 0.7414 0.446509 -0.779929 0.438567 -0.443593 0.466474 0.765263 -0.66664 -0.457285 0.588626 0.613231 0.605412 0.50737 -0.0544114 -0.532815 0.844481 0.296749 0.940951 -0.162947 -0.207488 -0.890618 -0.404658 0.337386 0.0276586 -0.94096 0.967419 -0.125499 0.219888 0.30221 0.257628 -0.917767 -0.183241 0.372338 0.909828 -0.351253 0.62528 -0.696883 -0.759606 -0.635205 -0.139691 -0.382864 0.235791 0.893206 0.620182 -0.505566 -0.599815 0.198228 0.978846 -0.0506547 -0.979325 0.192711 0.06152 0.72217 0.648299 0.241203 0.158629 -0.869017 -0.468665 -0.715932 -0.217008 0.663588 0.139255 0.588408 -0.796482 0.319521 -0.935049 -0.15359 -0.291654 -0.528893 -0.797001 0.722162 0.407722 0.558789 0.46765 -0.85929 -0.207181 0.7844 0.149606 0.601942 -0.240698 0.953963 -0.178936 -0.773909 0.17425 -0.608853 0.200235 -0.515006 -0.833471 0.754798 0.48306 0.443772 -0.897962 -0.395598 0.192787 0.141915 0.379605 -0.914199 0.0595927 -0.874817 -0.480774 -0.0425371 0.699148 0.71371 0.994977 0.0869147 0.0496608 -0.0157434 0.806765 -0.590662 0.48563 -0.244093 0.839394 0.366233 0.902586 0.2263 -0.973948 0.0737055 0.214459 0.981623 0.183635 -0.0519164 0.54685 -0.515835 -0.659446 0.863522 -0.155732 -0.479663 0.158763 -0.97267 0.169436 -0.00643355 -0.183772 -0.982948 0.430462 -0.536923 -0.725545 0.764486 0.283992 0.578713 0.455356 -0.769904 -0.4471 -0.169563 0.112778 0.979045 0.810881 0.579064 0.0845928 0.0582622 -0.874837 -0.4809 0.0248224 0.969412 0.244179 -0.853243 0.508821 0.114358 -0.944527 -0.098188 -0.313413 -0.194373 0.0681627 0.978557 0.23153 -0.807153 0.543045 -0.587074 -0.42376 0.689762 0.0984409 0.281404 0.954527 -0.371454 0.925655 -0.072005 -0.444253 -0.800006 0.403274 -0.188764 0.78231 0.593598 0.55905 0.434251 0.70632 -0.952825 -0.262271 0.152767 -0.410645 0.830825 -0.375634 0.564442 0.0633724 -0.823037 0.83598 -0.0700959 0.544265 -0.623965 -0.762768 -0.169861 0.27792 0.296194 -0.9138 0.633057 0.671226 -0.38561 0.836903 -0.523212 0.160756 -0.673289 0.419867 0.6086 0.544734 -0.400785 -0.736639 -0.717083 0.664562 -0.21012 0.873971 -0.475957 -0.098182 -0.00334557 0.0843739 -0.996429 -0.54493 -0.789824 0.281476 0.978493 -0.19153 -0.076604 0.0132448 -0.210641 -0.977474 0.429538 -0.874359 0.225817 -0.454288 0.500494 -0.736972 0.607749 0.600395 0.519777 0.430292 -0.213167 0.877159 -0.644154 -0.764893 -0.00214908 -0.825853 0.275688 -0.491897 -0.817716 -0.360337 0.448884 -0.548896 -0.0218652 -0.835605 0.934834 0.354966 -0.00913204 0.414382 -0.253162 0.874183 -0.0984679 -0.763945 0.637724 0.908361 0.36068 -0.211638 0.445793 0.434215 -0.782768 0.160139 -0.928579 0.334807 0.0598731 -0.0622059 -0.996266 -0.972573 -0.164374 -0.164567 0.350485 -0.393456 0.849913 0.960291 -0.23342 0.152827 -0.00270108 -0.650754 -0.759284 -0.0518177 0.86991 0.49048 0.499067 0.182131 0.847207 0.568073 0.591958 0.571733 -0.918201 -0.288579 0.271345 0.221671 -0.354152 0.908536 0.537504 0.842754 0.0292545 -0.219226 0.965319 -0.141771 -0.797152 -0.21493 0.564229 0.694393 -0.453494 0.558714 0.606772 0.542409 0.581051 0.506055 0.83178 -0.228144 0.531257 -0.742329 -0.408306 0.548602 -0.342425 0.762746 -0.853422 -0.418286 -0.31098 -0.13176 -0.74827 0.650178 0.931485 -0.258649 0.255805 0.783989 0.614743 -0.0863287 -0.159691 0.0310237 0.98668 -0.694543 0.71182 0.104511 -0.82817 -0.0408277 -0.558987 -0.787804 -0.14877 0.597689 -0.42004 -0.792737 -0.44174 -0.472457 -0.719119 -0.50956 0.476399 -0.850601 -0.222534 -0.818696 0.406327 0.405752 0.948856 -0.131483 0.287026 0.0205729 0.926544 0.375623 -0.848246 -0.502973 -0.165824 -0.795048 0.598125 -0.100719 -0.815622 -0.328419 -0.476343 -0.39521 -0.901344 0.177168 0.831478 -0.436967 -0.34308 0.584456 -0.800132 0.134903 0.0512495 -0.440527 -0.896275 -0.0849253 -0.938903 0.33354 0.14249 -0.165414 -0.975876 -0.994663 0.00643368 -0.102973 0.325278 -0.848455 0.417514 -0.286456 0.205704 0.93575 0.856895 0.480476 0.186744 -0.0613181 0.646301 -0.760615 -0.464355 -0.524903 -0.713338 0.511156 0.79781 -0.319716 0.455214 0.873867 0.170694 0.185085 -0.703624 0.686044 -0.32867 0.935476 -0.12985 -0.145722 0.22052 -0.964435 0.270496 -0.957102 0.10386 -0.649936 -0.613795 0.44815 0.770971 0.253186 -0.584381 -0.500446 0.360148 0.787303 -0.622811 0.0353391 0.781574 0.655386 -0.318123 0.685031 0.378782 0.339671 0.860899 -0.594121 -0.662687 -0.455923 0.826476 -0.307696 -0.471445 0.223206 0.335254 0.915305 -0.0719109 -0.562692 -0.823533 0.410185 -0.785813 -0.462867 -0.503481 -0.70484 0.499708 0.405565 -0.641399 0.651248 -0.571073 0.701313 -0.426658 -0.64235 -0.253619 0.723231 0.276621 -0.893096 0.354768 0.671523 0.686478 0.278934 -0.238787 0.378672 0.894197 0.56604 -0.277174 0.776385 0.67134 -0.260928 0.693699 -0.58034 0.182667 0.793623 0.976429 0.0265483 -0.214199 0.305088 0.287476 -0.907898 0.228558 0.973234 0.024025 -0.396437 0.13436 0.908177 -0.723786 0.458328 -0.51582 -0.0939266 0.977429 -0.189237 -0.803824 -0.549396 -0.228102 -0.818936 0.351075 0.453971 -0.306626 -0.880668 0.361116 0.0302309 -0.468161 0.883126 -0.028606 0.529483 0.847838 -0.739116 -0.205857 -0.64135 -0.0588369 0.997644 -0.0352872 0.249652 -0.024644 0.968022 0.18132 0.441666 -0.878666 0.437717 0.874293 -0.209797 -0.718733 0.633719 -0.286049 -0.411067 0.623124 0.665387 0.307665 -0.0105935 0.951436 0.0537603 0.970173 0.236376 0.20114 -0.979444 -0.0152528 -0.970146 0.239873 0.0357376 0.578611 0.792157 -0.194154 0.981402 0.17002 0.0891263 -0.533884 -0.718269 -0.446159 -0.921617 -0.00271745 0.388092 0.607998 -0.372001 -0.701395 -0.796222 -0.431839 0.423729 0.869115 0.312722 -0.383202 0.832517 -0.188608 0.520906 -0.11763 -0.481133 0.86872 0.803962 0.0684627 -0.590726 0.746793 0.594998 0.297114 -0.0521556 -0.792681 -0.607402 -0.709242 -0.250653 -0.6589 0.128906 0.989161 -0.0703071 0.776704 -0.0517186 0.627739 0.603674 -0.717372 0.347786 0.8492 0.37052 -0.376264 -0.462984 0.881626 0.091547 0.168361 -0.603628 -0.779287 -0.5163 -0.0379863 -0.855565 -0.657022 -0.614687 -0.436442 0.737434 0.406427 -0.539451 0.0639342 -0.91876 -0.389605 -0.108442 0.363946 -0.925086 0.153124 -0.575865 0.803077 -0.917453 -0.351779 -0.185828 0.692093 0.385366 0.610328 0.768008 0.456498 -0.449192 -0.395331 0.000898936 -0.918538 0.204795 0.848562 -0.487854 0.922829 0.166921 -0.347165 0.718034 -0.681641 0.140688 0.80181 0.29527 0.519535 -0.483818 -0.593454 0.64322 -0.723267 0.493252 -0.483309 0.317157 0.391797 -0.863659 0.984344 0.0136208 -0.17573 -0.534518 -0.842205 -0.0705726 -0.166121 -0.924802 -0.342266 -0.041687 0.517481 -0.854679 -0.357871 -0.844279 0.3989 -0.965174 -0.260634 -0.0225458 -0.804067 0.506678 -0.311053 -0.237045 -0.50902 -0.827471 -0.0870729 -0.766175 0.636706 -0.529685 -0.00914297 0.848145 0.344102 -0.918199 0.196228 0.689264 -0.0131087 -0.724392 0.058356 -0.781986 -0.620559 -0.630908 -0.768878 0.103832 -0.530303 0.847436 -0.0251092 -0.618897 -0.242206 0.747196 0.117739 0.989958 0.078238 0.678898 0.298304 0.670904 0.27775 -0.615266 0.737769 -0.401148 -0.913569 0.0668657 0.14556 -0.97439 -0.171395 0.936101 0.222892 -0.272091 0.948899 -0.273826 0.156874 0.351025 0.912877 0.208414 0.0215738 -0.0618622 0.997852 0.83628 0.129117 -0.532883 0.527422 -0.291543 0.798016 0.231701 0.237195 -0.943426 -0.627618 0.236864 0.741614 0.559482 0.651562 0.512295 -0.171093 -0.399675 0.900548 -0.938818 0.330871 0.095631 0.973809 0.0252476 -0.225961 0.0556804 0.693161 0.718629 0.0273273 0.969918 -0.241893 -0.318543 -0.941776 -0.107648 -0.028353 0.276758 -0.960521 -0.0605573 0.0398894 0.997367 -0.152321 -0.368076 -0.917234 -0.932763 -0.35915 -0.0310655 -0.0855574 -0.0146508 -0.996226 -0.463917 0.881342 -0.0895339 -0.0333228 0.628099 0.77742 0.932347 -0.313566 -0.180013 0.328408 -0.259402 0.908217 -0.265352 0.590373 -0.762265 -0.888683 -0.425386 -0.171143 0.875142 0.0759419 -0.47787 0.158816 0.0819414 0.983902 -0.140856 0.894767 0.423735 0.267688 -0.0873735 0.959536 0.206173 -0.666766 0.716182 0.602032 -0.0558378 -0.796517 -0.342479 0.656708 -0.671895 -0.773497 -0.549641 -0.315592 0.980509 0.127319 0.149639 0.143491 -0.208627 -0.967412 -0.191425 -0.213265 0.958058 0.340618 -0.0652001 0.937938 0.366609 -0.258257 -0.893813 0.227452 -0.970023 -0.0855569 0.835608 0.208305 -0.5083 0.524716 0.724679 0.446669 0.740255 -0.207717 -0.639434 0.832826 0.55353 0.0023877 0.0925711 0.761246 0.641822 0.728077 -0.527875 -0.437323 -0.926443 -0.278223 0.253565 0.109899 -0.982133 0.152766 -0.186386 0.15262 -0.97055 -0.962103 0.270223 -0.0365671 -0.779812 -0.594702 -0.195509 0.336848 0.442433 0.831135 0.0575524 -0.972238 0.226807 0.838849 0.402312 0.366711 -0.277351 0.943038 -0.183729 0.809652 0.366254 0.458608 0.470214 -0.684071 -0.557626 0.731283 0.663161 0.159506 0.513714 -0.266713 0.815452 0.570612 -0.15288 0.806864 -0.452093 -0.891785 0.0181866 0.0953879 -0.0915307 -0.991223 -0.773877 0.41142 0.481507 0.00154099 -0.461028 0.887384 0.169756 -0.754124 0.634414 -0.682533 0.7244 0.0969206 0.1397 0.225488 0.964178 -0.618246 -0.69249 0.371793 -0.619096 0.426211 -0.659594 -0.859814 0.266083 0.435798 0.904535 0.371254 -0.20973 -0.809921 0.58096 -0.0807076 -0.426209 0.654282 -0.624709 0.72759 0.594628 0.342097 -0.620544 -0.0915229 -0.778813 0.611167 0.66064 -0.435924 0.088512 0.922634 -0.375382 -0.0168502 -0.650401 -0.759404 -0.721219 -0.420501 0.550474 -0.129112 -0.861477 -0.491109 0.623339 -0.251789 -0.740305 0.127242 -0.615847 0.777523 0.752451 0.609688 -0.249196 0.933064 0.255848 -0.252849 0.404906 0.591382 0.697365 0.73525 -0.633065 0.242151 0.156785 0.299291 -0.941193 -0.377381 -0.542717 -0.750361 0.939369 -0.238547 0.246333 -0.88989 0.150168 0.430749 -0.784816 0.273705 -0.556012 0.105074 0.123537 -0.986761 -0.135768 -0.96629 -0.218747 -0.779567 -0.621718 0.0757738 0.344515 0.0382781 0.938 0.918812 -0.281829 0.276327 -0.643039 0.0946779 0.759958 0.337341 0.40057 -0.851907 -0.0281045 0.973527 -0.226839 -0.054659 0.289343 -0.955664 -0.0265545 -0.684185 -0.728825 -0.930571 -0.341517 -0.131924 -0.861747 0.0393169 -0.505813 -0.945141 -0.00353437 -0.326643 0.199444 0.299254 -0.933097 -0.540679 -0.425886 0.725457 0.601166 -0.79314 0.0976093 0.301826 0.953341 0.00652861 0.948302 -0.163977 0.271726 -0.38475 0.807369 0.44735 -0.302095 0.777356 0.551776 0.911205 0.314585 0.265973 -0.910091 0.250372 -0.330224 -0.49147 -0.290174 0.821131 0.316651 0.421097 -0.849947 -0.795928 -0.301746 -0.524831 0.864479 0.342415 -0.368005 -0.947579 0.298393 0.114264 -0.972583 -0.117325 -0.200791 -0.342251 0.567611 0.748787 0.579593 -0.644559 -0.498615 0.967026 -0.0836055 0.240563 0.935609 0.199855 -0.291022 0.226198 -0.972639 -0.0529967 0.0784096 -0.337357 -0.938106 0.173503 -0.174171 -0.96931 -0.0448556 0.0643493 0.996919 -0.948314 0.312795 0.0534831 0.232334 0.776337 0.585937 0.377031 0.797648 -0.47075 0.916638 0.155165 0.368374 -0.446585 0.794861 0.410802 0.45324 -0.209949 -0.866311 0.156522 0.407079 -0.899882 -0.443044 0.62335 0.644319 -0.529267 0.746875 -0.40256 0.999516 0.0309583 -0.00320948 -0.23264 -0.500356 -0.83398 0.876809 -0.0514502 -0.478079 0.708939 -0.627527 0.321894 -0.565135 0.804047 -0.184745 -0.246604 -0.781793 -0.5727 0.215205 -0.897773 0.384304 -0.16787 -0.576077 0.799972 -0.140399 -0.929229 -0.341792 0.18248 -0.761597 0.621828 -0.969552 -0.180759 -0.165214 0.761265 0.264786 -0.591916 -0.173849 0.639747 0.748666 0.306712 -0.143455 -0.94093 0.189091 -0.980034 0.0614634 -0.853084 0.329317 -0.40472 0.307712 0.898878 -0.31198 0.960963 0.268103 -0.068341 -0.672214 -0.394601 -0.626434 -0.896034 -0.081905 -0.436364 0.0981518 -0.0877684 -0.991294 -0.955324 0.0996635 -0.278251 -0.972412 -0.204142 -0.112877 -0.922653 -0.348085 0.165979 -0.406979 0.874051 0.265334 0.588913 0.680136 -0.436574 0.685907 0.0532157 -0.725741 0.680725 -0.636829 0.362026 0.254078 -0.918905 -0.301757 -0.776602 -0.100247 0.621965 -0.565165 0.808667 0.163233 0.335831 -0.539457 0.772142 -0.257211 0.732486 0.630323 -0.915073 0.243448 -0.32152 0.905608 -0.225409 0.359257 -0.523805 0.0870712 0.847377 -0.909288 0.307969 -0.279912 -0.575052 0.0236624 0.817774 0.236988 0.108652 0.965418 -0.492365 -0.85954 -0.136996 0.70388 -0.689925 -0.168986 -0.50596 0.295624 0.810315 -0.412915 -0.755124 -0.509204 0.113056 -0.985189 -0.12892 -0.343637 0.277692 -0.897107 0.986263 0.0498427 0.157482 0.565284 -0.23418 0.790958 -0.225802 0.806298 0.546714 -0.203377 -0.745843 -0.634315 0.308106 -0.948774 -0.0699912 -0.498198 -0.564402 0.658217 0.592343 0.798627 0.106419 0.0149548 -0.546786 -0.837139 0.298597 0.311006 0.902283 -0.561481 0.798279 -0.217921 0.887129 0.42552 0.178701 0.394544 -0.81203 0.43005 -0.941953 -0.332668 -0.0453517 -0.2398 0.830214 -0.50323 -0.62265 0.218829 0.751279 0.571895 0.714335 0.403313 0.771442 -0.61142 -0.176192 0.400136 0.0475289 0.915223 -0.311468 -0.0734089 -0.947417 0.190025 -0.832818 0.519908 -0.384381 0.576254 0.721237 -0.934835 0.209623 0.286603 0.143024 0.504136 0.851699 -0.145832 -0.664753 0.732691 -0.939986 -0.23777 -0.244729 0.874499 -0.203574 0.440237 0.569047 -0.486847 0.662696 -0.354791 -0.880021 0.315733 -0.237865 0.787594 -0.568433 0.266807 -0.799146 0.538684 -0.748405 -0.375384 -0.546787 0.874026 0.465684 0.138623 -0.802779 0.243914 0.544107 0.221218 -0.969408 0.106356 0.205082 0.256345 -0.944578 -0.641934 0.741515 -0.195132 0.23328 -0.397707 0.887361 -0.327381 0.893461 0.30749 0.520666 -0.646727 -0.557361 0.515921 -0.279862 0.809631 -0.871051 -0.43187 0.234005 0.418005 -0.521539 0.743821 0.773137 -0.576113 -0.26524 0.716967 0.65053 -0.250537 0.632418 -0.550176 0.545302 0.692455 0.440297 -0.571528 -0.916979 -0.385836 0.101388 -0.523611 0.488369 -0.698088 0.244939 0.13718 0.959784 0.105741 -0.787955 0.606586 -0.139199 -0.925135 -0.353199 -0.45319 -0.563573 -0.690655 0.136242 0.960349 -0.243244 -0.285234 0.0195789 -0.958258 0.32212 -0.655 0.68353 0.897958 -0.142702 0.416301 0.826661 -0.207276 -0.523133 -0.770206 0.635444 0.0547188 0.213372 0.117915 0.969829 0.92783 -0.169938 0.332043 -0.283203 0.73969 -0.610454 -0.903246 -0.416737 0.102351 0.776129 0.375243 0.506771 -0.46267 0.00963878 -0.886478 0.495238 -0.311319 -0.811061 0.142392 -0.406408 0.902528 0.150709 -0.562789 0.812746 -0.624867 -0.780449 0.0209798 0.375019 0.847845 0.37486 0.480322 0.720114 -0.500726 -0.0998935 0.380588 0.919333 -0.792162 0.51626 0.325507 0.335742 -0.821837 -0.460284 -0.722 -0.0978431 -0.68494 -0.756217 -0.603919 -0.251827 0.241594 0.751594 0.61379 -0.977583 0.210427 0.00721842 -0.679391 -0.25945 0.686377 0.14698 0.617183 -0.772969 -0.834264 0.486388 -0.259673 -0.64112 -0.711713 0.287107 0.545297 0.670771 0.50271 0.76254 0.532108 0.36796 -0.540466 0.79035 -0.288519 -0.144546 0.989324 0.0185688 -0.475234 0.450143 -0.755992 0.309379 0.948021 0.0744402 -0.635342 0.771548 0.0324663 0.956302 0.0600341 -0.286151 -0.69376 -0.451568 -0.561055 -0.346878 0.733841 0.584083 0.385458 0.652578 0.652353 -0.567635 0.679086 -0.465439 -0.184853 -0.347746 -0.919186 0.0230495 -0.965925 -0.257795 -0.153393 0.794839 -0.587113 -0.781477 0.253507 -0.570111 -0.583246 -0.798688 0.148063 0.483026 0.357883 -0.799128 -0.882737 0.21336 0.418631 -0.2292 -0.370729 0.900015 0.653536 -0.584089 0.481384 0.780806 -0.353752 0.514977 -0.0244956 0.926933 0.374428 -0.815104 0.0187207 -0.579012 0.628703 0.171031 -0.758605 -0.904266 0.4153