# vtk DataFile Version 4.0
Generated by libgran
ASCII
DATASET POLYDATA
POINTS 1686 FLOAT
-31.8905 1.20492 6.70484 -30.7365 0.69298 8.16328 -32.3771 1.0213 4.99779 -31.4957 2.15372 6.06657 -32.8701 0.504581 9.20235 -32.8176 1.38533 3.83165 -31.4161 0.089117 12.8902 -31.5479 -1.53084 13.5797 -31.6849 0.727605 11.7553 -31.4816 -0.480185 10.4507 -31.0631 1.20447 10.4104 -30.2414 1.24076 9.38939 -31.7145 -2.80867 16.3148 -30.7159 -2.68244 15.446 -30.6156 -1.54707 15.3213 -29.7391 -0.120044 14.8022 -29.096 0.189818 15.5026 -29.0376 0.60107 14.045 -33.0963 -3.59929 14.2485 -35.3478 -3.76558 15.4509 -34.1545 -3.49418 14.9309 -34.5777 -3.51042 16.6277 -36.0877 -4.24507 14.4491 -34.0979 -3.77961 17.7075 -34.2036 -2.34984 17.9923 -34.4952 -1.8234 19.0378 -33.2123 -1.8377 19.3594 -33.1444 -3.22346 22.0833 -33.9204 -2.08055 22.7762 -33.2686 -2.24977 21.0505 -33.3355 -4.50689 22.3738 -34.6115 -5.6467 21.7806 -33.6005 -2.16014 24.4274 -32.5439 -2.8992 19.8146 -34.0469 -6.01426 19.7171 -34.9628 -6.98261 19.2042 -32.8485 -6.56353 19.5432 -31.787 -6.88024 19.4934 -31.1724 -6.03778 20.9727 -31.8551 -5.57059 22.5087 -30.5619 -4.75678 21.3818 -34.4765 -8.37832 19.9738 -26.6369 -11.7401 22.0673 -27.4853 -11.055 21.3065 -28.8172 -11.8392 21.0096 -26.2624 -11.3676 23.9863 -27.6579 -11.3188 24.376 -30.3196 -12.6453 20.8987 -31.8162 -9.61873 18.7504 -30.6934 -9.01063 18.1661 -31.4469 -10.8689 19.0125 -32.9603 -10.5853 19.3576 -30.8462 -12.0979 19.8672 -33.7595 -9.73053 20.3819 -29.7383 -10.1346 17.0433 -29.6832 -11.1353 15.673 -28.9509 -13.4335 15.9256 -28.4903 -13.0235 14.7474 -29.6761 -12.2261 14.8981 -27.7725 -13.0936 17.1438 -26.6319 -12.6068 14.675 -26.237 -13.0245 17.71 -26.1824 -14.1561 17.7001 -25.5721 -10.1875 11.5798 -26.5588 -10.5852 11.1361 -26.9472 -9.31754 12.1682 -24.3309 -10.3003 12.0431 -24.0992 -10.6394 10.4388 -24.3426 -10.5081 13.8959 -25.207 -11.476 14.8784 -36.2409 14.7195 2.62876 -36.0664 14.1702 0.729986 -35.8718 13.1968 0.609306 -35.5462 15.3633 3.91228 -35.1529 15.2979 4.93458 -34.2627 15.7246 5.09428 -34.6896 15.1749 5.81225 -38.9778 13.1821 -0.330431 -39.7516 13.7854 -1.22681 -38.1046 14.6452 -0.618094 -38.3702 12.9104 0.559913 -38.9935 11.3951 -0.14707 -39.6186 10.2409 0.173117 -40.2715 9.03058 0.745382 -44.3523 9.21085 -0.705052 -44.2462 8.37586 -1.5232 -44.9318 10.5434 -1.58093 -44.2119 10.6607 0.663873 -41.1022 8.41441 0.469401 -39.9008 7.52994 -0.143735 -39.9952 7.80611 -1.43739 -39.5129 6.90077 -1.94155 -39.6395 6.09371 -0.586641 -39.8318 9.30597 -2.34356 -41.2665 8.21854 -2.21856 -39.7093 9.71453 -3.61304 -39.5152 4.66713 -1.07299 -40.1791 4.56472 0.401766 -39.5848 6.34056 -8.43219 -38.6058 6.15293 -9.31207 -39.5297 4.62008 -9.19507 -40.0097 7.86722 -10.1285 -40.6268 7.26132 -10.7576 -41.181 7.98418 -9.0923 -41.6499 6.80366 -11.5823 -41.798 7.37827 -9.72137 -40.4047 3.04399 -9.07719 -41.1287 8.28722 -6.94362 -41.6681 8.24341 -8.1698 -41.4084 8.2339 -5.74995 -41.9295 7.99519 -4.78255 -42.7868 7.58679 -4.18779 -42.0405 7.46981 -3.43515 -43.8826 8.87631 -4.57787 -42.6609 8.69391 -2.37256 -37.6017 2.78467 -11.2152 -36.2231 3.08772 -12.1805 -36.8723 1.7708 -10.8717 -38.0387 3.99097 -10.8659 -38.4378 5.19674 -11.3031 -40.0699 4.98379 -11.4126 -37.3255 0.177407 -10.5186 -41.0453 4.46591 -12.069 -40.1409 -0.455331 -8.09877 -39.5515 0.759341 -8.19769 -40.7235 1.39673 -8.51772 -38.4039 1.94084 -8.44677 -26.0255 12.8739 19.5289 -26.4418 13.9094 20.2516 -24.8648 13.8693 19.9737 -27.3265 12.2871 18.3279 -29.1863 13.0192 19.3693 -29.9465 10.6472 17.6772 -29.8148 12.1315 16.5463 -30.7078 9.62771 17.5288 -30.3269 8.86031 18.1938 -29.0166 11.8847 15.9967 -32.4037 9.37333 17.5933 -31.1837 9.64318 16.138 -33.0976 9.25654 19.1268 -26.6868 4.40433 13.0262 -26.4885 3.28501 13.0004 -27.0233 5.63861 13.3887 -28.5445 4.88624 13.4581 -27.8979 2.59467 13.8677 -27.7 2.12332 12.4551 -28.2694 1.99146 15.2671 -27.3884 1.28819 11.3335 -27.1183 1.45208 10.3069 -30.018 9.10717 15.3222 -31.1023 9.07226 14.5534 -28.6845 9.11988 14.9071 -30.9919 7.52235 13.6783 -32.1307 8.89035 13.3742 -31.4731 6.26154 13.6505 -30.0398 5.79683 13.583 -32.9535 6.29394 5.36706 -33.8457 5.73377 4.55578 -32.6622 7.16728 6.1094 -32.0996 5.5637 6.65038 -35.5534 4.8961 4.90947 -33.5923 3.6422 6.35155 -36.6988 5.25097 4.27131 -36.2875 5.30522 2.81443 -39.2637 3.6257 2.57249 -37.6719 3.39007 2.87795 -40.4054 3.96533 1.98412 -40.3972 3.43556 0.225145 -36.6551 4.92884 1.91772 -37.1616 2.75982 4.1988 -32.3477 5.73253 11.3685 -31.6807 8.02425 10.3543 -33.0838 8.31985 11.359 -33.3624 8.68573 12.3663 -34.1422 7.6425 12.7644 -32.4686 10.2631 12.5924 -34.604 6.34843 13.3971 -34.1843 3.09943 8.91505 -33.8544 3.07348 10.2029 -33.1217 3.24587 7.24327 -33.365 3.48143 11.4463 -26.0683 23.3879 27.9433 -26.5742 22.1281 28.4158 -26.1277 22.8934 29.5031 -25.7933 23.575 26.6559 -26.0952 25.0467 27.3085 -26.7808 26.2727 27.4076 -23.2585 23.4318 27.8959 -22.9466 23.5912 30.2149 -23.7666 24.232 31.3934 -22.6724 23.3746 28.932 -22.2428 23.0582 27.958 -23.8931 25.2991 28.4975 -23.7432 24.3314 32.6263 -25.5597 27.4264 32.8504 -25.1505 28.3648 33.7017 -26.1307 29.2823 32.9912 -25.9179 26.8225 31.9925 -25.0016 26.0733 31.721 -23.5427 28.8256 34.734 -25.7671 25.262 31.0264 -21.0513 25.6642 34.4488 -21.3001 24.3648 34.5831 -20.8623 26.7486 34.4952 -19.8184 27.2983 35.3413 -20.8281 28.1858 34.9638 -18.2926 26.8816 36.0522 -18.3887 28.1431 35.7291 -21.7902 29.1672 34.8776 -19.8539 29.2602 34.4914 -28.1565 23.8321 32.7213 -28.4967 26.0874 33.1552 -30.6651 25.0811 35.1719 -30.6005 23.9785 34.2761 -30.2101 23.3462 32.5251 -26.8665 23.5069 32.6217 -32.0521 21.2784 30.5156 -32.6194 22.1249 31.9871 -30.8031 20.9856 30.1614 -29.9585 20.6298 29.7614 -32.6838 23.1342 33.2776 -33.6003 22.7745 33.1024 -35.343 23.3769 32.902 -36.0763 23.3828 31.5898 -35.7251 22.5061 31.0944 -36.9624 24.8505 30.8215 -37.4872 24.6364 32.4467 -37.8792 25.3946 31.4663 -36.8131 22.6138 32.9008 -37.5013 25.5892 34.0679 -37.575 26.6813 32.2003 -41.3965 26.3861 35.3719 -40.7489 27.4614 34.9333 -39.8407 26.6435 34.4373 -38.4425 26.5286 34.1711 -41.2938 26.7633 33.2056 -37.3069 26.6748 33.8285 -37.1336 10.3201 21.4957 -37.4694 9.34516 22.3345 -38.6269 10.748 22.0834 -35.7252 9.90467 20.745 -36.6294 11.3779 20.6164 -34.5692 8.44871 20.5964 -33.6174 7.56741 19.9431 -34.1411 6.88684 19.1868 -32.4709 6.93754 19.3085 -34.7213 5.88759 18.5288 -34.9643 5.52332 19.8962 -30.7549 5.12088 18.9818 -30.2363 6.07867 18.6714 -41.6161 11.914 20.7048 -42.3996 11.334 21.609 -43.7553 11.1693 20.7263 -41.6393 13.3932 20.9256 -42.8933 13.3285 20.1599 -40.2838 9.16983 19.1651 -40.2397 10.7678 19.8161 -39.8566 8.73416 20.1083 -39.3967 8.25066 20.8531 -37.6335 8.27385 20.2658 -38.6883 7.47222 21.4627 -30.2025 16.2998 22.0293 -31.3452 16.4275 22.6972 -30.2443 16.0366 23.9085 -29.2005 15.6717 21.3651 -30.0927 15.5052 20.3117 -32.2884 17.2726 22.9198 -31.8167 18.2149 24.329 -30.7688 18.8143 25.8436 -34.1874 11.6104 19.3234 -33.323 11.2263 20.2261 -32.3967 12.105 19.4043 -34.9934 12.6197 19.0067 -36.0985 11.9095 19.7136 -31.2341 12.0678 20.2177 -30.9499 13.0266 20.2155 -29.594 20.1141 26.3222 -29.6978 18.5559 26.0534 -30.4686 20.2293 28.4769 -31.8232 20.3388 27.3466 -29.5226 17.0081 26.1701 -28.9831 15.8008 27.0218 -31.4407 20.63 25.0089 -32.4782 20.0391 25.9871 -31.2491 21.9325 25.1961 -32.7374 22.7367 24.8588 -34.3574 22.6048 24.9416 -34.2636 23.9936 23.2826 -5.75326 23.8856 37.7314 -4.76009 23.8278 37.8327 -7.00808 23.4423 37.7987 -5.25032 23.1329 37.3066 -7.76801 24.5584 38.8945 -8.5879 23.1226 38.2963 -8.62356 24.204 38.5171 -8.6189 25.0687 39.0195 -4.53036 22.1186 37.5105 -3.46587 22.7865 36.8688 -4.12911 20.4259 37.557 -9.49487 22.2706 37.2451 -5.25935 18.6493 38.9023 -5.41123 19.5389 37.6572 -5.99478 17.4281 39.1385 -6.35895 16.4166 39.4552 -3.57032 19.7881 38.4894 -0.818598 24.0724 37.8163 -1.96342 24.1984 37.1518 -2.13795 22.9779 37.0237 0.229241 25.6246 37.69 -1.99116 25.8465 36.84 -2.30215 21.7388 36.8635 -2.15671 27.6056 37.2518 0.540009 30.0081 37.5449 1.41085 28.7875 38.218 -2.25877 29.2634 36.9714 2.37509 28.4048 37.3608 -2.98184 28.5612 38.3491 -20.4394 31.2256 42.2119 -19.2439 30.736 41.8967 -20.5146 31.1778 43.9118 -21.7191 30.7114 42.4917 -18.0246 29.4902 44.283 -18.4036 29.8267 45.8461 -17.4777 28.8751 42.7577 -15.1794 28.0223 40.8134 -15.9561 27.8354 41.8763 -14.2621 26.6611 40.6049 -17.0084 27.7255 42.0776 -16.8649 26.5621 43.0077 -15.9685 26.088 42.4069 -13.0725 26.6161 41.3862 -13.8702 26.1173 42.0318 -16.7055 25.6838 44.3267 -11.0791 23.0839 41.9503 -12.2994 23.419 42.365 -10.9506 23.5827 41.0932 -10.159 23.2153 41.5814 -12.5539 24.3532 43.4563 -12.9521 23.302 44.2388 -13.1932 25.8061 43.3258 -10.1757 24.7018 40.7824 -14.8 25.7312 42.7709 -9.91544 26.8056 38.7342 -9.31955 25.6646 38.3719 -10.4935 26.3429 40.1036 -10.5816 27.3175 40.3098 -11.4871 26.8983 38.804 -10.4089 26.664 41.0468 -19.3782 34.5447 39.6227 -19.4878 35.5275 37.9935 -18.3928 34.9268 40.4304 -18.2491 36.5217 40.2444 -17.9552 36.2418 41.1583 -18.4724 37.089 41.0371 -18.4478 38.2226 40.5352 -19.3712 35.195 36.9397 -20.1211 36.6026 37.5032 -17.4046 37.4383 41.8783 -18.4403 39.9983 44.5232 -20.1596 39.8118 43.9058 -20.3002 40.3203 44.9451 -20.4326 39.1311 42.5011 -21.7916 39.1971 43.6801 -19.0504 38.9401 41.3117 -17.38 38.5719 41.3764 -20.1635 41.9714 46.4899 -18.9631 42.5843 45.2797 -19.6619 41.3722 47.5657 -20.8639 40.8865 46.2613 -18.861 42.7437 44.0276 -17.6741 43.3762 44.9093 -20.0807 38.8698 48.4144 -21.1834 37.6609 51.3384 -20.441 38.7371 51.0962 -21.4862 39.5194 51.8016 -19.4696 38.5583 49.8923 -17.8729 39.362 49.8988 -22.3406 40.3475 51.6322 -16.4494 27.756 38.5419 -15.7616 27.4888 37.4358 -15.9018 28.8741 37.2832 -15.5261 25.9413 37.3952 -17.0123 29.2166 36.3157 -14.4606 25.3813 38.5352 -12.9814 26.1948 38.6656 -18.4138 29.1831 35.2664 -18.6506 30.3428 34.1111 -17.9639 29.6198 34.0355 -17.7453 30.5499 33.7403 -18.9024 31.4003 35.8291 -18.5314 30.8138 36.8589 -21.5311 29.9117 36.8589 -21.9734 31.148 35.8399 -21.5926 33.2178 41.4313 -23.2244 32.602 41.5228 -21.0
[...]
POINT_DATA 1686
FIELD FieldData 1
normals 3 1686 double
-0.367313 0.342192 -0.864862 0.78667 -0.169753 0.593577 -0.119295 -0.525819 -0.842189 0.762031 0.606603 0.226588 -0.37812 0.849925 0.36695 -0.321278 0.889852 -0.323951 -0.360702 0.915441 -0.178501 -0.492531 -0.704519 0.510946 0.0918741 -0.276953 -0.956481 0.111408 -0.930837 -0.348038 0.529981 0.753818 -0.388432 0.291634 -0.717531 -0.632534 -0.441964 -0.806701 0.392303 0.556649 -0.680478 -0.476542 0.656918 0.454899 -0.60127 0.219582 0.972122 0.082241 -0.423531 0.662259 -0.618089 0.481929 -0.251007 -0.839488 -0.790307 0.594729 -0.147354 -0.925409 0.218232 -0.309827 0.267916 0.489625 -0.829752 -0.155276 0.473388 0.86706 0.185487 -0.69773 -0.69193 0.635103 -0.742576 0.212664 0.529361 0.687189 0.497542 -0.820956 -0.160748 0.547897 0.461927 -0.175047 0.869472 0.642469 -0.736672 0.211062 -0.133487 0.406241 0.903963 0.51826 0.237021 -0.821722 -0.833516 -0.546756 0.0794286 -0.44254 -0.59306 -0.672635 0.453419 -0.485831 0.747248 0.206465 -0.886454 -0.414212 0.81154 -0.023657 0.583818 -0.104385 -0.992003 0.0709538 0.38681 -0.525611 -0.757701 0.674687 0.208903 0.707924 -0.0600444 0.633559 0.771361 -0.62262 -0.166374 0.764633 0.670517 0.647433 -0.362266 0.590671 -0.403714 0.698658 -0.252228 0.967623 -0.00926747 -0.59612 -0.282484 -0.75156 -0.735851 -0.501776 0.454691 0.840701 0.478112 0.254227 -0.554758 0.526911 0.643901 -0.766529 -0.304253 -0.565565 -0.471206 -0.872897 -0.126552 0.651597 -0.264805 -0.710844 0.840558 -0.377292 0.388733 -0.672876 -0.0936962 0.733798 -0.239917 -0.851661 0.465954 -0.126331 0.94849 0.290529 0.303497 -0.859177 -0.411953 -0.2484 -0.141515 -0.958265 0.46961 -0.258178 0.844281 0.930271 0.151863 -0.333967 -0.255551 0.949263 -0.183287 0.708859 0.598083 0.373919 0.928133 0.264814 0.261615 0.826595 -0.528963 0.192196 0.772019 0.602627 0.202058 0.885191 -0.00697824 -0.465175 -0.10148 -0.404594 -0.908848 -0.489883 0.863032 0.123251 0.35604 -0.10575 0.928468 0.587658 -0.444874 -0.675829 -0.367741 -0.102027 0.924314 -0.496717 -0.865957 0.0582308 -0.125522 0.159465 0.979191 0.0489483 -0.389847 -0.919578 -0.145655 0.583563 -0.798899 0.820244 0.484339 0.304328 -0.426924 -0.549769 0.717976 0.463214 -0.122976 0.877673 0.890137 0.426794 0.159694 -0.117418 -0.849112 0.514997 -0.891136 -0.245821 -0.381378 0.755839 0.614025 0.227335 0.725085 0.577379 0.375347 0.101753 -0.937904 -0.331636 -0.726882 -0.216264 0.651823 0.0740248 -0.994078 -0.0795582 -0.617608 0.785485 -0.0396581 -0.511587 -0.0495055 -0.857804 0.0381106 0.547072 -0.836217 -0.569064 0.818412 -0.0797921 0.904767 -0.377908 0.196423 -0.296677 0.506554 0.809559 -0.391142 0.782723 -0.484099 0.0911615 -0.122619 -0.988258 -0.035368 -0.929685 0.366653 0.554594 0.717137 -0.422067 -0.880133 -0.370292 -0.29707 -0.432049 -0.308581 -0.847415 0.159663 -0.496887 -0.853001 -0.504241 -0.599302 0.621754 -0.360311 0.829436 0.426862 0.618758 0.641803 -0.453021 -0.305161 -0.891049 -0.336019 -0.38125 0.619969 0.685775 -0.998292 0.0140624 0.0567024 -0.79003 -0.503016 0.350467 -0.0248072 -0.471722 -0.881398 -0.172984 0.102891 0.979536 -0.569822 -0.685038 0.453901 0.236522 -0.718431 0.654151 -0.302918 -0.762244 -0.572036 -0.516286 0.66511 0.539515 -0.00482698 -0.903821 0.427883 -0.852471 0.495424 0.166879 -0.106147 0.378444 0.919518 -0.243335 0.794096 -0.556955 -0.514199 0.845654 0.143069 -0.883 0.311265 0.351318 0.49565 0.614312 -0.613964 -0.153578 -0.702602 0.694813 0.445995 0.895033 -0.00197701 -0.845004 0.310744 -0.435209 -0.787188 -0.523693 0.3257 -0.299611 -0.890793 -0.341644 -0.188211 0.00581085 -0.982111 -0.33165 0.889831 -0.313382 0.921134 0.32484 0.214457 -0.250953 0.962226 -0.105568 0.226423 0.856661 -0.463535 -0.395574 -0.45645 -0.796978 -0.811863 0.579107 -0.0742516 0.765161 0.538988 -0.352166 -0.905427 -0.130388 -0.403981 -0.67306 0.0824245 -0.734981 0.112772 -0.937079 0.330401 0.244524 0.547259 -0.800447 -0.874073 -0.082395 -0.478756 -0.493111 -0.849788 0.186284 -0.55367 0.794055 -0.250851 -0.821783 -0.171978 0.543227 0.398232 0.0978692 -0.912049 0.12791 0.055186 0.990249 -0.887319 0.415714 0.199617 -0.689004 -0.703605 0.173818 0.550846 0.818562 0.162866 -0.970396 0.0661889 0.232275 -0.720353 0.0132649 0.693481 -0.522542 -0.458092 -0.719098 0.348771 -0.616481 0.70591 0.834141 -0.377035 -0.402558 -0.563977 0.540923 -0.623966 0.767416 -0.633882 0.0962598 -0.316894 -0.668794 -0.672527 0.56608 0.646595 -0.511341 0.427321 -0.88111 -0.202587 -0.711491 0.486887 -0.506677 -0.908455 -0.379706 0.174735 0.524838 -0.844409 0.107326 0.149329 -0.0863292 0.985012 -0.742867 -0.646502 0.173737 0.141948 0.959667 -0.242673 0.704545 -0.643913 0.298315 -0.964921 -0.191171 0.179947 0.976621 -0.209133 0.0497498 -0.180422 0.546041 -0.8181 0.591698 -0.491784 -0.638782 -0.863802 0.339535 0.372239 0.727964 0.103897 0.677697 -0.277919 8.84261e-05 -0.960605 0.286092 -0.529857 -0.798375 0.959248 -0.115395 0.257929 -0.21768 -0.734146 0.643153 0.258241 -0.697461 0.668476 -0.604471 0.621219 0.4987 -0.798712 -0.325621 0.505994 0.520163 0.691502 0.501253 -0.259662 -0.351726 0.899369 0.373571 0.885852 -0.275156 -0.202163 -0.942344 -0.26668 0.556546 -0.0407545 -0.829817 0.88645 -0.0667112 0.457991 0.506011 0.187193 -0.841969 -0.397111 0.474661 0.785493 -0.301947 0.697568 -0.64979 -0.807795 -0.562163 -0.177313 -0.361284 0.203157 0.910055 0.576991 -0.510421 -0.637614 0.275085 0.961302 0.0150617 -0.960687 0.264635 0.0839596 0.771413 0.571178 0.280495 0.0889298 -0.844932 -0.527429 -0.731096 -0.204055 0.651046 0.185282 0.628368 -0.755529 0.244261 -0.944782 -0.218456 -0.33295 -0.448812 -0.829284 0.754545 0.30337 0.581918 0.397717 -0.878793 -0.263713 0.80695 0.0596501 0.5876 -0.173291 0.977166 -0.12295 -0.755865 0.274909 -0.594216 0.160398 -0.474272 -0.865644 0.800811 0.401153 0.444722 -0.925841 -0.336986 0.171052 0.144514 0.569076 -0.809487 -0.104225 -0.730269 -0.675163 0.0445135 0.515306 0.855849 0.999362 0.0343756 -0.00972965 -0.010343 0.921911 -0.387264 0.526519 -0.451064 0.720638 0.430363 0.810418 0.397505 -0.951726 0.059532 0.301121 0.984633 0.152493 -0.0851112 0.507406 -0.511233 -0.693671 0.849282 -0.193912 -0.491038 0.0663312 -0.992954 0.0981942 -0.00174402 -0.109671 -0.993966 0.392173 -0.522625 -0.75701 0.782629 0.186023 0.594043 0.386988 -0.781112 -0.490005 -0.180336 0.0653911 0.981429 0.862016 0.488354 0.135789 -0.0174248 -0.84415 -0.535824 0.115989 0.943925 0.309115 -0.80048 0.584199 0.133956 -0.942268 0.0182033 -0.334366 -0.209002 0.012326 0.977838 0.142225 -0.864299 0.482451 -0.634536 -0.415245 0.65187 0.109766 0.201135 0.973394 -0.28219 0.959333 -0.00698116 -0.527854 -0.781275 0.333136 -0.123844 0.751666 0.647813 0.586366 0.327401 0.740934 -0.975018 -0.18438 0.123872 -0.327418 0.89091 -0.314764 0.580793 0.0729401 -0.810777 0.817391 -0.187781 0.544619 -0.427804 -0.803357 0.414248 0.318255 0.333936 -0.887243 0.890205 0.323754 -0.320498 0.554418 -0.651161 0.518276 -0.603025 0.751659 0.267151 0.518204 -0.739164 -0.430234 -0.385969 0.734032 -0.558771 0.637845 -0.716797 0.281701 0.313948 -0.164502 -0.935081 -0.83768 -0.516068 0.178793 0.83253 -0.465366 0.300545 0.257525 -0.483178 -0.836791 0.0144857 -0.847451 0.530676 -0.0445091 0.396569 -0.916925 0.56315 0.561215 0.606547 0.0702029 -0.0672506 0.995263 -0.853705 -0.512746 -0.0909907 -0.501975 0.347973 -0.791793 -0.980931 0.036401 0.190915 -0.273157 -0.101129 -0.956639 0.96564 0.0505108 0.254929 0.0423647 -0.0997835 0.994107 -0.538451 -0.486179 0.688259 0.998395 0.00267365 0.0565719 0.764813 0.0205231 -0.643926 -0.289974 -0.781109 0.552977 0.190284 -0.132171 -0.972791 -0.952387 -0.00444008 -0.30486 0.148529 -0.395307 0.906461 0.81168 -0.495904 0.308633 -0.0805146 -0.662401 -0.74481 0.00920168 0.849542 0.52744 0.462422 0.0926984 0.881801 0.585502 0.506752 0.632764 -0.994245 0.0966399 0.0462436 -0.129848 -0.28752 0.948932 0.796416 0.591225 0.127178 0.188218 0.912609 -0.36293 -0.916882 0.202411 0.344031 0.366226 -0.628449 0.686244 0.650352 0.330335 0.684047 0.589361 0.793032 -0.154124 0.485524 -0.765122 -0.422911 0.492695 -0.443586 0.748654 -0.861808 -0.334089 -0.38167 -0.310306 -0.782682 0.539555 0.849816 -0.424652 0.312224 0.830759 0.556632 -0.000427699 -0.206754 -0.0343603 0.97779 -0.639178 0.745808 0.187678 -0.849096 0.0583647 -0.525004 -0.770957 -0.190202 0.607822 -0.462923 -0.717722 -0.520171 -0.490232 -0.6949 -0.526105 0.502939 -0.752735 -0.424784 -0.764589 0.251518 0.593416 0.993171 -0.057836 0.10132 0.00465373 0.864617 0.502409 -0.815229 -0.571157 -0.095815 -0.850892 0.510265 0.12495 -0.855546 -0.354352 -0.377459 -0.273213 -0.956468 0.102586 0.791274 -0.288518 -0.539113 0.674461 -0.73618 -0.0560497 -0.0917489 -0.280812 -0.955367 0.224705 -0.942048 0.249105 0.0728178 -0.0524884 -0.995963 -0.960139 -0.279224 -0.0128805 0.595973 -0.732271 0.32954 -0.115672 0.0982959 0.988412 0.782695 0.614564 0.0984914 -0.362131 0.740585 -0.566035 -0.536654 -0.479895 -0.694049 0.265145 0.937644 -0.224773 0.334392 0.90748 0.254289 0.372447 -0.759193 0.533768 -0.499936 0.851628 0.157463 -0.42792 0.33931 -0.837707 0.442923 -0.881311 -0.16465 -0.397868 -0.80624 0.437812 0.521318 0.498585 -0.692561 -0.325202 0.104012 0.939907 -0.557995 -0.0879411 0.825171 0.637422 -0.577545 0.510035 0.482783 0.0402021 0.874817 -0.72179 -0.426223 -0.545301 0.742385 -0.1849 -0.643953 0.363385 0.151582 0.919225 -0.195471 -0.430177 -0.881328 0.389083 -0.642313 -0.660339 -0.387593 -0.829299 0.402536 0.528234 -0.718906 0.451822 -0.664757 0.719444 -0.201243 -0.521204 -0.44395 0.728872 0.375176 -0.918058 0.128107 0.661299 0.673906 0.329445 -0.136405 0.175096 0.975057 0.680555 -0.434353 0.590069 0.791645 -0.367404 0.488173 -0.428679 -0.0322949 0.902879 0.920107 0.131405 -0.368966 0.128462 0.498808 -0.857139 0.174214 0.966517 0.188401 -0.223991 -0.0847575 0.970899 -0.813488 0.486333 -0.318931 -0.145137 0.987698 0.0582029 -0.793329 -0.561233 -0.235896 -0.750796 0.190739 0.632396 -0.154905 -0.950284 0.27012 0.172711 -0.653422 0.737028 0.0846444 0.321112 0.943251 -0.820912 -0.0980285 -0.562578 -0.0880664 0.974534 0.206223 0.324465 -0.365525 0.872418 0.214853 0.617313 -0.756811 0.660896 0.747679 -0.0647492 -0.517218 0.847226 -0.121219 -0.22326 0.567281 0.792684 0.293958 -0.279944 0.913904 0.318571 0.853695 0.411968 -0.0982578 -0.949823 -0.296953 -0.848167 0.457786 0.266542 0.773816 0.629227 -0.0726768 0.985228 -0.167093 0.0374979 -0.734022 -0.35358 -0.579821 -0.874608 0.154905 0.459418 0.461043 -0.327139 -0.824875 -0.898029 -0.26113 0.354054 0.921167 0.13619 -0.36456 0.749204 -0.50441 0.42926 -0.389529 -0.673511 0.628212 0.810937 -0.0606021 -0.581987 0.891168 0.0742853 0.447551 -0.310853 -0.411342 -0.856836 -0.708853 0.219999 -0.67017 0.478027 0.852503 0.211492 0.618024 -0.591519 0.517834 0.222089 -0.975025 -0.0017246 0.9645 0.101173 -0.243935 -0.0806211 0.883471 0.461497 0.00693405 -0.279987 -0.959979 -0.388047 0.503231 -0.772125 -0.773867 -0.055361 -0.630924 0.712067 0.512285 -0.480129 -0.0242714 -0.779511 -0.625918 -0.164443 0.605719 -0.7785 0.259807 -0.768022 0.585357 -0.946046 -0.263152 -0.189074 0.805736 0.207995 0.554551 0.673385 0.605515 -0.42415 -0.455435 0.22961 -0.86015 0.218586 0.930099 -0.295187 0.905311 0.207127 -0.370823 0.686725 -0.722972 -0.0756354 0.850612 0.121612 0.511536 -0.479632 -0.708062 0.518267 -0.720357 0.640838 -0.265353 0.278095 0.595472 -0.753708 0.945864 -0.0765016 -0.31542 -0.685951 -0.692341 -0.223908 -0.358923 -0.774553 -0.520808 -0.0720585 0.725127 -0.684834 -0.470121 -0.860442 0.196533 -0.995844 -0.0806235 0.0423709 -0.731101 0.681945 -0.0210023 -0.477577 -0.218319 -0.851033 -0.0909989 -0.903234 0.41939 -0.432233 -0.205452 0.878046 0.27268 -0.957082 -0.0981771 0.621417 0.144176 -0.7701 -0.0671349 -0.579799 -0.811989 -0.688552 -0.723976 -0.0418896 -0.625894 0.779649 0.0201232 -0.674042 -0.423082 0.605532 -0.0152911 0.975479 0.219562 0.481333 0.357601 0.800275 0.268027 -0.617492 0.739503 -0.213306 -0.975094 -0.0607711 0.222831 -0.972664 -0.0653606 0.930376 0.353675 -0.0965089 0.980936 -0.149247 -0.124458 0.258404 0.96471 -0.0506159 0.335104 0.124131 0.933968 0.582138 -0.0159799 -0.812933 0.800033 0.0316877 0.599119 -0.117017 0.0843694 -0.98954 -0.38856 0.305671 0.869245 0.570268 0.819749 0.0529703 -0.363589 -0.469535 0.804575 -0.87309 0.486529 0.0316849 0.973746 -0.180959 -0.138103 0.0268379 0.496929 0.867376 0.230885 0.972908 0.0119177 -0.513264 -0.783602 -0.35004 0.204047 0.47598 -0.855458 -0.245799 -0.163272 0.955471 -0.0289361 -0.124122 -0.991845 -0.916083 -0.231887 -0.327139 0.153576 0.243874 -0.95757 -0.346911 0.936235 -0.0558317 -0.14965 0.527847 0.836052 0.915017 -0.392819 -0.0918476 0.154428 -0.406394 0.900553 -0.136342 0.630663 -0.763987 -0.802022 -0.456892 -0.384722 0.949526 0.156201 -0.272034 -0.0590811 0.0170099 0.998108 -0.275195 0.855814 0.438007 0.0634673 -0.144191 0.987513 0.0931219 -0.709363 0.698664 0.702116 -0.0317353 -0.711355 -0.104882 0.620823 -0.776903 -0.497236 -0.635854 -0.590293 0.810571 0.238246 0.534989 0.562638 -0.176062 -0.807738 -0.552455 -0.248354 0.795685 -0.0501029 -0.104037 0.993311 0.451592 -0.17001 -0.875877 0.363263 -0.926145 -0.101467 0.921324 0.179271 -0.344999 0.492292 0.635665 0.594625 0.812275 -0.20399 -0.54644 0.866783 0.45528 0.203488 0.054508 0.65927 0.749928 0.739893 -0.54394 -0.395837 -0.970299 -0.23599 0.0531881 0.028815 -0.99849 0.0467657 0.0138068 0.214184 -0.976696 -0.92252 0.328093 -0.203253 -0.679474 -0.618093 -0.395317 0.32563 0.321973 0.888987 -0.026361 -0.992529 0.119123 0.837532 0.546176 0.0152225 -0.452866 0.847476 -0.276942 0.84029 0.527789 0.123905 0.399995 -0.751612 -0.524484 0.639206 0.746411 -0.185166 0.753038 -0.0330216 0.657148 0.796098 0.109674 0.595147 -0.298912 -0.874785 0.381318 -0.18535 -0.35884 -0.914811 -0.660592 0.441103 0.607492 0.335334 -0.222584 0.915427 0.47096 -0.55162 0.688413 -0.722404 0.679422 0.128523 0.377057 0.489834 0.78606 -0.376168 -0.602842 0.703619 -0.838522 0.187654 -0.511535 -0.727172 0.321733 0.606391 0.739663 0.371238 -0.56132 -0.873921 0.482559 0.0583046 -0.683643 0.426516 -0.592213 0.693176 0.718637 -0.0553799 -0.795463 -0.345815 -0.497645 0.32619 0.595715 -0.733978 -0.167315 0.790117 -0.589678 -0.0705323 -0.805356 -0.58858 -0.467871 -0.378366 0.798709 -0.0666842 -0.961074 -0.268124 0.453528 -0.319616 -0.83196 0.43166 -0.39563 0.810646 0.520212 0.641457 -0.563836 0.76374 0.327651 -0.556189 0.444155 0.785909 0.430202 0.85183 -0.501643 0.150799 -0.214126 -0.0545869 -0.97528 -0.475141 -0.725878 -0.497334 0.996786 -0.0790971 -0.0126998 -0.703544 0.284521 0.65121 -0.956646 0.0489502 -0.287111 -0.253102 -0.235571 -0.938321 -0.00726477 -0.999635 -0.0260398 -0.602608 -0.693949 0.394079 0.583278 0.251074 0.772495 0.994318 -0.105403 0.0148703 -0.4079 0.145535 0.901353 0.00687988 0.293889 -0.955815 -0.223446 0.921165 -0.318634 -0.379918 0.134045 -0.915256 -0.156472 -0.787121 -0.596622 -0.853569 -0.477807 0.207655 -0.971985 -0.114396 -0.205324 -0.98047 -0.195604 -0.0204253 -0.124829 0.139198 -0.982365 -0.230377 -0.348847 0.908423 0.736906 -0.675607 0.0229033 0.115379 0.967968 -0.222993 0.999746 0.0125496 -0.0187145 -0.377782 0.814729 0.439883 -0.194313 0.709518 0.677368 0.921673 0.38676 0.0305863 -0.982959 0.178341 -0.0445729 -0.265112 -0.386178 0.883505 0.0443284 0.592388 -0.804433 -0.876972 -0.314602 -0.363243 0.705652 0.502949 -0.499097 -0.950807 0.0993692 0.293414 -0.699235 0.652645 -0.291762 -0.414555 0.135704 0.899849 0.380002 -0.527088 -0.760116 0.587834 -0.790976 0.169731 0.951495 -0.303811 -0.0485319 -0.137033 -0.877463 -0.459654 0.188871 0.033791 -0.98142 0.388599 0.0158074 -0.921271 0.12392 0.023989 0.992002 -0.963931 0.126304 0.234276 0.181086 0.789091 0.586978 0.136583 0.869179 -0.475262 0.920746 0.330293 0.207685 -0.508158 0.668923 0.542511 0.311376 -0.07955 -0.946951 -0.103248 0.462376 -0.880652 -0.428643 0.492166 0.757653 -0.806005 0.54585 -0.228917 0.953897 0.239469 -0.180929 -0.187422 -0.771079 -0.608531 0.805854 -0.0146488 -0.591933 0.873417 -0.335793 0.352684 -0.75163 0.580812 -0.312585 -0.156888 -0.968162 -0.195059 0.481786 -0.641216 0.597264 0.0675627 -0.321145 0.944617 0.0292949 -0.999005 0.0336343 0.494649 -0.430079 0.755218 -0.927478 -0.346015 0.141626 0.576922 0.111177 -0.809198 -0.163983 0.849394 0.501637 0.171087 -0.476392 -0.862427 0.274249 -0.883685 0.379325 -0.928225 0.139875 -0.344723 0.145891 0.845774 -0.513207 0.902363 0.367383 -0.225325 -0.671124 -0.695771 -0.25592 -0.920133 -0.37717 -0.10535 -0.0631182 -0.5453 -0.835861 -0.988172 -0.149214 -0.0353873 -0.866635 -0.420035 0.269285 -0.783073 -0.307454 0.540618 -0.531262 0.843756 -0.0764022 0.342923 0.422067 -0.839204 0.517724 -0.252488 -0.817442 0.855692 -0.295416 0.424877 0.296032 -0.915231 -0.273345 -0.67473 -0.115917 0.728905 -0.64086 0.751535 0.156502 0.499838 -0.399147 0.768663 -0.133053 0.806393 0.576218 -0.994923 0.100552 -0.00421309 0.996363 -0.0718349 0.0458223 -0.128772 0.18168 0.97489 -0.948755 0.302611 0.0910503 -0.1866 0.117045 0.975439 0.526782 0.331051 0.782883 -0.512339 -0.841511 0.171367 0.559316 -0.73784 -0.377833 -0.108015 0.38984 0.914526 -0.659859 -0.711537 -0.241455 0.0322833 -0.996821 -0.0728406 -0.616212 0.275152 -0.737952 0.949821 0.237749 -0.203262 0.823334 0.00540979 0.567532 -0.241739 0.801208 0.547384 -0.193885 -0.850203 -0.489452 0.465372 -0.882659 -0.0658892 -0.130686 -0.512821 0.84849 0.379581 0.915412 -0.133938 0.00458702 -0.371887 -0.928267 0.478655 0.534778 0.696349 -0.758112 0.637913 -0.135401 0.78757 0.586321 -0.189637 0.668516 -0.633019 0.390351 -0.82834 -0.504379 0.243833 -0.530839 0.685179 -0.498738 -0.412783 0.24918 0.876082 0.513338 0.850046 0.117923 0.79585 -0.514776 -0.318791 0.613513 0.255919 0.747066 -0.533427 -0.273763 -0.800318 0.479596 -0.690142 0.541934 -0.274946 0.633691 0.723077 -0.847231 0.128277 0.515505 0.271172 0.668388 0.692621 0.219065 -0.45358 0.863873 -0.900644 -0.408604 0.147926 0.988343 0.0323344 0.148768 0.824647 -0.335769 0.455211 -0.0472984 -0.838257 0.543219 -0.564618 0.61652 -0.548735 0.491577 -0.649192 0.580433 -0.818612 -0.52629 -0.229987 0.819335 0.534862 -0.206429 -0.638761 0.320434 0.699504 0.35067 -0.908516 0.227221 -0.0738084 0.0433093 -0.996332 -0.754233 0.629961 -0.185151 0.373904 -0.546563 0.749309 -0.255307 0.819459 0.513133 0.344838 -0.572167 -0.744118 0.633269 -0.441841 0.635411 -0.845835 -0.414318 0.336012 0.504235 -0.667191 0.548272 0.650983 -0.564282 -0.507748 0.707113 0.65122 -0.275507 0.648131 -0.707786 0.281007 0.591562 0.436392 -0.67795 -0.91374 -0.277652 0.296629 -0.60096 0.633336 -0.487579 0.490007 -0.0328568 0.871099 0.124372 -0.873275 0.471087 -0.365635 -0.840418 -0.400012 -0.627845 -0.405749 -0.664213 0.177402 0.97734 -0.115479 -0.469758 0.201687 -0.859447 0.388093 -0.781566 0.488405 0.943841 -0.266978 0.194643 0.683452 -0.175832 -0.708503 -0.653151 0.690848 0.310038 0.406079 -0.0660897 0.911445 0.954632 -0.279425 0.102953 -0.303264 0.842631 -0.444976 -0.911167 -0.347005 0.222177 0.892163 0.228326 0.38976 -0.605978 0.161141 -0.778989 0.304089 -0.210471 -0.929103 0.286734 -0.539297 0.791797 -0.198309 -0.449365 0.871059 -0.873002 -0.486527 -0.0340339 0.627864 0.687666 0.364557 0.790225 0.400995 -0.463408 -0.0625115 0.522031 0.850633 -0.570203 0.810443 0.134352 0.0552385 -0.943545 -0.326605 -0.604179 0.0767308 -0.793145 -0.90748 -0.204429 -0.367001 0.435353 0.674569 0.596175 -0.765385 0.63181 -0.122483 -0.804927 0.0938101 0.585912 0.465747 0.423209 -0.777158 -0.512795 0.769849 -0.379965 -0.921604 -0.314006 0.228139 0.612926 0.573327 0.543708 0.873854 0.405195 0.268694 -0.490492 0.867992 -0.0775089 -0.0216003 0.986792 0.160548 -0.558317 0.589448 -0.583809 0.414418 0.901938 0.121517 -0.529023 0.807416 0.261177 0.911617 0.00155737 -0.411037 -0.79854 -0.359307 -0.482941 -0.197453 0.741403 0.641354 0.497768 0.497464 0.710462 -0.393673 0.822067 -0.411372 -0.262985 -0.233582 -0.936097 -0.330841 -0.928144 -0.170566 0.250524 0.701282 -0.667414 -0.52766 0.445844 -0.723048 -0.868826 -0.484573 0.101642 0.688261 0.0170746 -0.725262 -0.776925 0.596512 0.201398 -0.493275 -0.0961514 0.864543 0.283649 -0.692663 0.663145 0.502699 -0.540078 0.674988 0.296626 0.912737 0.280935 