# vtk DataFile Version 4.0
Generated by libgran
ASCII
DATASET POLYDATA
POINTS 1686 FLOAT
-32.7568 2.44994 6.24689 -31.3309 1.62666 7.25176 -33.6481 2.60632 4.70882 -32.4564 3.49067 5.70835 -33.438 -0.86918 7.42192 -34.2736 3.21043 3.7443 -30.5165 0.356219 11.8716 -30.0789 -1.31392 12.2405 -31.2523 0.994867 10.9667 -31.3289 -0.0302581 9.50205 -30.9766 1.66766 9.59037 -30.5071 1.90279 8.3891 -29.2124 -2.99634 14.6067 -28.5302 -2.46693 13.5956 -28.7398 -1.34397 13.6942 -28.3556 0.327984 13.3323 -27.715 0.63998 14.034 -27.8939 1.30297 12.6828 -31.0337 -3.80079 12.7505 -32.7137 -4.64979 14.454 -31.7912 -4.01233 13.7394 -31.6827 -4.46179 15.426 -33.6301 -5.13366 13.6131 -30.8528 -4.80203 16.2409 -31.1324 -3.52798 16.9005 -31.3475 -3.13148 18.0193 -30.0401 -3.04156 18.1982 -29.367 -4.49922 20.8561 -30.5101 -3.72332 21.5488 -29.8526 -3.65197 19.8185 -29.0807 -5.67623 21.4044 -29.9364 -7.269 21.3031 -30.1547 -3.63276 23.1922 -29.1864 -4.03675 18.4464 -29.3662 -8.06078 19.3452 -30.0044 -9.33787 19.3079 -28.0641 -8.28654 19.1983 -26.9657 -8.24194 19.0532 -26.6115 -6.79001 20.0742 -27.2887 -6.09609 21.5245 -26.5273 -5.3194 19.9684 -29.095 -10.2143 20.395 -20.8122 -12.7289 22.9705 -21.7337 -12.3503 22.09 -23.0808 -13.1528 22.2263 -20.2497 -11.6842 24.5616 -21.5961 -11.4498 25.0451 -24.582 -13.8982 22.5576 -26.3371 -11.8272 19.5765 -25.367 -11.5681 18.5949 -25.9376 -12.8699 20.2986 -27.3945 -12.3858 20.6636 -25.2262 -13.7294 21.4633 -28.1568 -11.163 21.2486 -24.6713 -13.0992 17.8151 -24.8941 -14.5312 16.931 -24.2094 -16.6467 17.914 -24.0433 -16.8033 16.6039 -25.0948 -15.8254 16.6566 -22.712 -16.1035 18.5856 -22.2527 -16.7256 15.9557 -21.0974 -16.0975 18.8615 -21.1961 -17.0547 19.4595 -21.843 -16.0517 11.8401 -22.9551 -16.3519 11.8006 -22.8914 -14.6976 12.0874 -20.5564 -16.2371 12.1197 -20.7732 -17.3336 10.8978 -20.1541 -15.5812 13.818 -20.7928 -15.8433 15.2921 -36.888 16.6519 3.74622 -37.5821 16.1831 1.94733 -37.5489 15.2041 1.74609 -35.66 17.1739 4.62033 -34.881 17.0276 5.37913 -33.9705 17.3722 5.15056 -34.1052 16.8252 5.97679 -40.7745 15.5823 2.1801 -41.7698 16.3067 1.6795 -39.9276 16.947 1.54258 -39.8928 15.2084 2.7446 -40.9256 13.8022 2.36958 -41.609 12.7514 2.87382 -42.2163 11.6349 3.65049 -46.5408 12.1913 3.94953 -46.8974 11.2438 3.35543 -47.3928 13.4872 3.2617 -45.7211 13.7345 4.91944 -43.1568 11.1287 3.72195 -42.3796 10.1074 2.74499 -42.977 10.375 1.59163 -42.789 9.43618 0.967302 -42.396 8.65311 2.28466 -43.1087 11.8661 0.666066 -44.4315 10.846 1.3488 -43.4679 12.2737 -0.55801 -42.5535 7.2164 1.83954 -42.5668 7.17097 3.4594 -45.0792 8.93296 -4.9787 -44.4277 8.72186 -6.11844 -45.3422 7.22789 -5.73281 -45.9307 10.5107 -6.45214 -46.7407 9.94589 -6.86275 -46.7183 10.6601 -5.10424 -47.9893 9.55134 -7.33329 -47.5282 10.0953 -5.51485 -46.2196 5.69274 -5.36271 -45.9912 10.918 -3.07539 -46.8839 10.9229 -4.07516 -45.8843 10.8574 -1.85439 -46.0385 10.6382 -0.76234 -46.6148 10.268 0.124447 -45.641 10.1276 0.535769 -47.7411 11.5895 0.151729 -45.7582 11.3873 1.72397 -44.2424 5.35035 -8.28086 -43.2701 5.59925 -9.66541 -43.4628 4.32046 -8.18343 -44.4777 6.56557 -7.79508 -44.9329 7.79712 -8.07849 -46.5259 7.6584 -7.67286 -43.7525 2.7287 -7.68207 -47.6803 7.19702 -7.99674 -45.6897 2.26087 -4.22208 -45.1635 3.50498 -4.31175 -46.3622 4.07987 -4.65104 -44.0778 4.74776 -4.53886 -25.0622 13.9157 19.9449 -25.6344 14.653 20.892 -24.2891 15.2677 20.2771 -26.3016 12.9027 18.9872 -27.9546 12.7527 20.5631 -28.3718 10.3874 18.3592 -28.9451 12.1036 17.8844 -28.8863 9.26428 18.0204 -28.1405 8.507 18.2364 -28.3149 12.3179 17.138 -30.3787 8.51322 18.4119 -29.7681 9.46223 16.8609 -30.505 7.83026 19.9496 -25.8752 5.3841 12.4357 -25.6198 4.31094 12.1601 -26.2594 6.43099 13.1599 -27.7586 5.66683 12.9286 -27.0069 3.39273 12.8293 -26.7445 3.21002 11.3614 -27.33 2.61591 14.1531 -26.3699 2.49755 10.1762 -26.0299 2.72261 9.18257 -28.8827 9.4261 15.6255 -30.1478 9.36597 15.2208 -27.7877 9.82678 14.8566 -30.199 8.06384 14.0034 -31.393 9.39461 14.2566 -30.6754 6.82795 13.7437 -29.274 6.45761 13.327 -33.7207 7.57024 5.34677 -34.8911 7.08657 4.94174 -33.0914 8.44696 5.83048 -32.5888 6.82803 6.38465 -36.4563 6.56469 5.95225 -34.3283 4.99992 6.6676 -37.6613 7.16697 5.77798 -37.801 7.23653 4.27125 -40.9349 6.12863 5.14525 -39.4167 5.57789 4.87262 -42.1668 6.61041 5.0215 -42.8873 6.05295 3.42623 -38.5356 6.97705 3.5829 -38.6159 4.82904 5.96817 -32.022 6.72272 11.5866 -31.626 9.22527 11.0607 -32.7461 9.21483 12.4064 -32.8094 9.34519 13.5041 -33.4839 8.20386 13.8162 -31.8983 10.8828 13.8828 -33.7495 6.77328 14.2299 -34.32 4.20899 9.23471 -33.6893 4.0717 10.3972 -33.6822 4.49472 7.37543 -32.9108 4.33615 11.5268 -25.4644 23.0682 29.2833 -25.8994 21.8081 29.8209 -25.5358 22.6664 30.869 -25.1649 23.1955 27.9941 -25.5827 24.68 28.5461 -26.3508 25.8601 28.5485 -22.6633 23.3004 29.3035 -22.4279 23.6187 31.6152 -23.3213 24.2715 32.7322 -22.1041 23.3452 30.3549 -21.6272 23.0012 29.4128 -23.4367 25.1527 29.7737 -23.3403 24.4486 33.9565 -25.3642 27.4119 33.9514 -25.0519 28.4214 34.7615 -26.0691 29.2266 33.9712 -25.6572 26.7325 33.1258 -24.6821 26.0396 32.9174 -23.5199 29.0527 35.8185 -25.3738 25.1403 32.2545 -20.8408 26.0027 36.5769 -20.9184 24.7552 37.0305 -20.7433 27.0784 36.3596 -19.7971 27.8778 37.1169 -20.8042 28.586 36.4582 -18.3226 27.7366 38.0187 -18.439 28.8732 37.3865 -21.7922 29.4591 36.0611 -19.835 29.5673 35.8066 -27.7111 23.6271 33.9766 -28.2128 25.8755 34.2786 -30.2711 24.8099 36.3519 -30.1229 23.654 35.5368 -29.7236 22.9435 33.8182 -26.3998 23.3871 33.9256 -31.3463 20.5048 32.0492 -31.9567 21.3716 33.4913 -30.0864 20.362 31.6451 -29.2199 20.0985 31.2211 -32.1036 22.4558 34.7125 -32.9657 21.9584 34.6163 -34.7849 22.293 34.478 -35.5718 22.0851 33.2143 -35.1295 21.2226 32.7698 -36.6553 23.3857 32.39 -37.0885 23.2365 34.0492 -37.5953 23.8811 33.0406 -36.1315 21.3396 34.6227 -37.1327 24.2957 35.6024 -37.3935 25.2403 33.6721 -41.0323 24.8042 37.0373 -40.5134 25.9019 36.4953 -39.5499 25.141 36.013 -38.1594 25.1428 35.688 -41.0144 25.6323 34.0079 -37.0595 25.3755 35.2824 -33.887 6.85321 23.3531 -33.7268 5.63747 23.866 -35.225 6.60361 24.3046 -32.6708 7.12788 22.2736 -33.9231 8.20711 22.7946 -31.2432 6.25173 21.4535 -30.364 5.85124 20.369 -30.8946 5.13874 19.6478 -29.3739 5.7546 19.3088 -31.4099 4.1342 18.9454 -30.9973 3.47249 20.151 -27.4598 4.69119 18.083 -27.3073 5.78734 17.8425 -38.6943 6.93534 24.0554 -38.9445 5.94092 24.9019 -40.4133 5.49259 24.3671 -39.0534 8.22965 24.7136 -40.4189 7.88365 24.2907 -37.2329 5.22752 21.4818 -37.4242 6.56419 22.5564 -36.4174 4.78734 22.1168 -35.6242 4.35838 22.5491 -34.2356 5.1521 21.6024 -34.5696 3.76629 22.6775 -29.5224 15.4431 23.5874 -30.5271 15.3072 24.4478 -29.169 15.1289 25.4256 -28.5137 15.1935 22.7158 -29.481 14.7262 21.833 -31.5664 15.9792 24.7965 -31.1174 17.0584 26.1118 -30.0379 17.8842 27.4917 -32.0515 9.59851 21.2784 -30.9381 9.52676 21.96 -30.5781 10.7167 21.0883 -33.1833 10.2892 21.3814 -33.8002 9.10645 22.0492 -29.3769 11.1044 21.7377 -29.4563 12.1013 21.7403 -29.0126 19.3527 27.7934 -28.9287 17.7799 27.6202 -29.7302 19.5391 29.9974 -31.1622 19.3995 28.9707 -28.4526 16.3118 27.8611 -27.5729 15.3545 28.7465 -30.995 19.5314 26.5926 -31.8783 18.9148 27.6981 -30.9602 20.8607 26.6021 -32.5214 21.468 26.1904 -34.127 21.2159 26.2754 -34.062 22.3875 24.4221 -6.55408 25.0724 42.1599 -5.61142 24.9288 42.4611 -7.84859 24.7792 42.0417 -6.08849 24.2121 41.9525 -8.63559 26.1327 42.7985 -9.51995 24.7117 42.2598 -9.44991 25.8124 42.3144 -9.41948 26.7424 42.6809 -5.55786 23.1754 42.4347 -4.31695 23.6147 41.9265 -5.40035 21.4734 42.7613 -10.3167 23.768 41.1977 -7.18633 20.0492 44.0072 -6.94352 20.8363 42.7087 -8.25963 19.1031 44.21 -8.92512 18.2504 44.5032 -5.12955 20.8762 43.8376 -1.69787 24.6719 43.2258 -2.59361 24.8457 42.2585 -3.02513 23.685 42.3142 -0.296958 25.9149 43.1008 -2.15289 26.3477 41.6555 -3.32416 22.461 42.2944 -1.98474 28.154 41.6735 1.05719 30.0225 42.2916 1.42475 28.8504 43.3835 -1.61586 29.6869 41.0803 2.45936 28.1163 42.9343 -2.796 29.478 42.2959 -21.3316 33.7502 42.7901 -20.0481 33.414 42.7024 -21.5832 34.1613 44.4228 -22.5379 33.1104 43.1307 -19.0568 32.8664 45.4917 -19.6746 33.5312 46.8616 -18.2916 31.9765 44.2163 -15.8045 30.5814 42.8222 -16.726 30.6893 43.7746 -15.0135 29.144 43.0368 -17.8011 30.7037 43.8371 -17.8987 29.765 44.9983 -16.9866 29.1063 44.6472 -13.9448 29.1841 43.9769 -14.8658 28.8987 44.5871 -17.9979 29.2607 46.5057 -12.3337 25.7648 45.6462 -13.5814 26.2246 45.7203 -12.012 26.0339 44.7384 -11.354 25.7765 45.4461 -13.9277 27.3968 46.5168 -14.5794 26.5797 47.4022 -14.3958 28.8296 46.0027 -11.1118 27.0207 44.3319 -15.9174 28.7531 45.245 -10.4018 28.5346 41.9043 -9.90818 27.294 41.831 -11.2061 28.4497 43.2345 -11.2519 29.4473 43.1821 -11.9558 28.6962 41.6977 -11.2371 28.9936 44.0731 -19.912 36.7969 39.3902 -20.1197 37.1612 37.5311 -19.2665 37.7416 40.0687 -19.7121 39.1955 39.5332 -19.3443 39.255 40.4612 -20.1335 39.8106 40.1995 -20.5192 40.732 39.4648 -19.7384 36.6141 36.6423 -21.0101 37.7276 36.7043 -19.2736 40.6996 40.863 -21.3992 43.5082 42.7819 -22.8568 42.4634 42.388 -23.2568 43.1843 43.2117 -22.7544 41.3272 41.2882 -24.0741 41.1997 42.5062 -21.3484 41.3443 40.1115 -19.6593 41.621 40.1282 -24.1139 45.2163 43.8735 -23.3501 45.762 42.3242 -23.4239 45.4624 44.9832 -24.1371 43.9507 44.2162 -23.3214 45.5207 41.0814 -22.5696 46.8636 41.5477 -22.5524 43.7408 46.8342 -22.9511 43.5853 50.1728 -22.864 44.6431 49.3719 -24.1863 45.0558 49.904 -21.9085 44.4352 48.1599 -20.9481 45.8065 47.525 -25.3485 45.1916 49.6291 -16.7831 29.4017 40.3802 -15.9735 28.873 39.4677 -16.1428 30.1452 38.9067 -15.7636 27.3861 39.9116 -17.1597 30.1356 37.7875 -14.9356 27.2196 41.3381 -13.4699 28.0516 41.5005 -18.4643 29.7655 36.6798 -18.646 30.5922 35.2587 -17.9282 29.9138 35.4153 -17.721 30.7547 34.9154 -19.079 32.0054 36.6431 -18.7677 31.7295 37.8131 -21.7342 30.676 37.8939 -22.1352 31.5339 36.528 -22.6832 35.199 41.3402 -24.1871 34.3192 41.4614 -21.8476 34.2914 40.8444 -22.0393 33.8551 39.655 -25.0504 32.6256 41.829 -25.5849 3
[...]
POINT_DATA 1686
FIELD FieldData 1
normals 3 1686 double
-0.536336 0.509866 -0.672593 0.889586 -0.313412 0.33228 -0.354969 -0.353487 -0.865473 0.836791 0.530859 0.134052 -0.793018 -0.551526 -0.258729 -0.270542 0.957599 -0.0990467 -0.607823 0.790505 0.075185 -0.170226 -0.879631 0.444154 -0.127975 -0.151857 -0.980083 0.0513006 -0.873268 -0.484532 0.403691 0.824654 -0.396206 0.0657743 -0.589533 -0.805062 -0.12037 -0.947217 0.297139 0.561822 -0.417809 -0.713997 0.35221 0.705149 -0.615396 0.0320159 0.966806 0.253497 -0.608581 0.65481 -0.448167 0.429677 0.0081818 -0.902946 -0.833475 0.48115 0.271689 -0.99847 0.0552299 -0.0026357 -0.0759555 0.692694 -0.717221 0.0325637 0.243238 0.96942 0.0820976 -0.5391 -0.838231 0.797287 -0.583487 -0.154518 0.517665 0.690565 0.505116 -0.73277 -0.29406 0.613658 0.574632 -0.204143 0.792542 0.872621 -0.440991 0.209901 -0.270413 0.334907 0.902615 0.387072 0.406265 -0.827722 -0.586283 -0.736018 0.338452 -0.269426 -0.856749 -0.439762 0.625737 -0.244346 0.740775 0.279071 -0.791052 -0.544386 0.79803 0.386254 0.462554 0.159807 -0.890831 0.425301 0.504064 -0.612018 -0.609388 0.594356 0.656624 0.464313 -0.240172 0.795302 0.556607 -0.437033 -0.101376 0.893714 0.324331 0.675309 -0.662395 0.749578 0.0143984 0.661759 -0.2597 0.902284 -0.34415 -0.66181 -0.523674 -0.536444 -0.685282 -0.278886 0.672764 0.858702 0.511592 -0.0300643 -0.487704 0.74602 0.45343 -0.815957 -0.466518 -0.341432 -0.483746 -0.818358 0.310289 0.486378 -0.559246 -0.671327 0.883246 -0.224285 0.411792 -0.573603 0.259727 0.776866 -0.171803 -0.635305 0.752908 -0.188695 0.963105 -0.191892 0.20931 -0.971814 -0.108478 -0.432105 -0.460247 -0.775537 0.654046 0.0125969 0.75635 0.820096 -0.144021 -0.553806 -0.231384 0.833894 -0.501082 0.843379 0.530587 -0.0847911 0.970546 0.221676 -0.0943426 0.771154 -0.524632 0.36067 0.869809 0.432549 -0.237347 0.73496 -0.442647 -0.51371 -0.377158 -0.742819 -0.553147 -0.313463 0.91147 -0.266388 0.551673 0.257262 0.793394 0.334785 -0.839208 -0.428544 -0.149369 0.398616 0.904873 -0.48936 -0.660665 0.569252 0.314249 0.121364 0.941551 -0.379863 -0.347403 -0.85733 -0.413143 0.631555 -0.656087 0.91374 0.400664 -0.067437 -0.134699 -0.546988 0.826233 0.77579 -0.202361 0.597662 0.910487 0.344627 -0.228572 0.00364332 -0.850917 0.525288 -0.991666 -0.126451 0.0246854 0.850543 0.513791 -0.112234 0.878022 0.477012 0.0392099 -0.154718 -0.929135 -0.335814 -0.528683 -0.12163 0.84006 -0.0785958 -0.994889 -0.0633896 -0.527438 0.838021 0.13975 -0.884073 -0.109429 -0.454357 -0.324646 0.457939 -0.827585 -0.497751 0.864248 0.072934 0.861958 -0.488717 -0.134845 0.0847034 0.532601 0.842117 -0.512741 0.800144 -0.311235 -0.324795 -0.138645 -0.935567 0.0682871 -0.921723 0.381791 0.381002 0.690965 -0.614333 -0.941794 -0.329158 0.0684006 -0.740211 -0.283376 -0.609743 -0.225864 -0.514988 -0.826906 -0.239091 -0.560419 0.792948 -0.17225 0.835071 0.522481 0.479225 0.623972 -0.617254 -0.435273 -0.869993 -0.231624 -0.120326 0.622938 0.772962 -0.93023 0.0580946 0.362349 -0.667214 -0.47357 0.574941 -0.318464 -0.452642 -0.832884 0.142694 0.0912735 0.985549 -0.44215 -0.665161 0.601717 0.391108 -0.741163 0.54563 -0.501575 -0.736328 -0.454141 -0.284175 0.680529 0.67537 0.129934 -0.89972 0.416678 -0.706148 0.529483 0.470109 0.267645 0.38916 0.881431 -0.420161 0.792066 -0.442827 -0.384895 0.870486 0.306774 -0.702459 0.341929 0.624208 0.269837 0.590828 -0.760335 0.0771622 -0.687955 0.72164 0.467116 0.873293 -0.138425 -0.922295 0.358262 -0.144985 -0.670694 -0.496988 0.550612 -0.366893 -0.903808 -0.220275 -0.483739 0.0356083 -0.874488 -0.372944 0.871291 -0.319007 0.899118 0.372817 0.229334 -0.299596 0.947709 -0.109955 0.186599 0.869967 -0.456441 -0.387086 -0.531386 -0.75352 -0.959226 0.205925 0.1936 0.386086 0.820617 -0.421338 -0.852307 -0.48155 -0.204164 -0.79262 -0.18947 -0.57953 0.42668 -0.900431 -0.0846636 -0.146575 0.815776 -0.559487 -0.941174 -0.222701 -0.254157 -0.195407 -0.97998 -0.0381522 -0.776744 0.601459 0.186858 -0.55127 -0.528355 0.645711 0.0593789 0.420652 -0.905277 0.424969 -0.154605 0.891907 -0.904967 0.312941 0.288276 -0.649549 -0.760214 0.0126683 0.520831 0.733955 0.435942 -0.978372 -0.0302127 0.204635 -0.737569 -0.158001 0.656527 -0.475123 -0.340703 -0.811283 0.414504 -0.61882 0.667269 0.849683 -0.371775 -0.373929 -0.509617 0.596837 -0.619739 0.826032 -0.456775 -0.330193 -0.439125 -0.516905 -0.734832 0.268921 0.857457 -0.438691 0.387984 -0.785227 -0.482584 -0.806064 0.545542 -0.229444 -0.864437 -0.45067 0.222814 0.537022 -0.821002 -0.193813 0.455769 -0.0204585 0.889863 -0.714695 -0.504134 0.48483 0.173534 0.897176 -0.406154 0.676143 -0.721749 0.148015 -0.850493 -0.0177441 0.525687 0.945655 -0.247583 -0.210807 -0.354437 0.620027 -0.699958 0.214731 -0.550464 -0.806771 -0.592852 0.481647 0.645402 0.925347 -0.0690906 0.372773 -0.639067 0.000136949 -0.769151 -0.0814374 -0.557592 -0.826111 0.949371 -0.290983 -0.118419 -0.124571 -0.679762 0.722776 0.444006 -0.786408 0.429442 -0.446424 0.454161 0.771001 -0.673662 -0.464602 0.574738 0.610332 0.594964 0.522985 -0.0641355 -0.546367 0.835087 0.300813 0.942693 -0.144364 -0.201441 -0.884209 -0.421421 0.338254 0.0281031 -0.940635 0.968952 -0.109188 0.221835 0.299553 0.257624 -0.918639 -0.190439 0.373643 0.907813 -0.32847 0.634877 -0.699312 -0.763514 -0.625205 -0.161756 -0.399951 0.233058 0.886411 0.627928 -0.507604 -0.589954 0.210161 0.976931 -0.0379306 -0.978305 0.203208 0.0403284 0.723512 0.638087 0.263392 0.159508 -0.866879 -0.472312 -0.733865 -0.214062 0.644686 0.164294 0.59334 -0.788007 0.312607 -0.937303 -0.15408 -0.279574 -0.519081 -0.807709 0.714898 0.391112 0.579614 0.467589 -0.860524 -0.202136 0.779882 0.149001 0.607934 -0.237386 0.954155 -0.182309 -0.760618 0.181134 -0.623418 0.214528 -0.511768 -0.831908 0.752121 0.482302 0.449109 -0.90623 -0.387506 0.169073 0.145798 0.365288 -0.919406 0.0682498 -0.882272 -0.465767 -0.0483108 0.710387 0.702151 0.994507 0.0889468 0.0551806 -0.0125522 0.797223 -0.603554 0.480049 -0.230066 0.846536 0.363612 0.90654 0.214409 -0.975503 0.0758926 0.206482 0.981749 0.184018 -0.0480172 0.558623 -0.518064 -0.647726 0.873316 -0.15478 -0.461911 0.175729 -0.970147 0.167137 -0.027544 -0.185731 -0.982214 0.426847 -0.524818 -0.736456 0.752736 0.278056 0.596719 0.470439 -0.754054 -0.458355 -0.139922 0.112798 0.983717 0.789514 0.611335 0.054204 0.0769273 -0.87487 -0.47821 -0.00695791 0.97136 0.237509 -0.869132 0.473981 0.14125 -0.949975 -0.139381 -0.279502 -0.163004 0.0684787 0.984246 0.279367 -0.794085 0.539799 -0.561776 -0.428531 0.70765 0.128634 0.279385 0.951524 -0.378221 0.923954 -0.0570673 -0.396719 -0.81404 0.424207 -0.172858 0.779783 0.601713 0.579999 0.435207 0.688619 -0.945931 -0.267634 0.183266 -0.426972 0.830053 -0.358758 0.536542 0.0691352 -0.841037 0.8539 -0.067307 0.516066 -0.642629 -0.724879 -0.248151 0.246002 0.299996 -0.921675 0.6592 0.66691 -0.3474 0.819387 -0.548828 0.165508 -0.678892 0.417311 0.604117 0.55695 -0.392235 -0.732092 -0.695324 0.686997 -0.211093 0.870678 -0.483917 -0.0880058 0.00852704 0.0834278 -0.996477 -0.539196 -0.795926 0.275262 0.981584 -0.180071 -0.0637762 0.0239259 -0.208614 -0.977705 0.436539 -0.870328 0.227954 -0.462357 0.486817 -0.741104 0.614916 0.609342 0.50058 0.408263 -0.242544 0.880053 -0.658451 -0.751874 -0.0335784 -0.810329 0.303548 -0.501224 -0.83338 -0.354947 0.423663 -0.532148 0.00894699 -0.846604 0.941412 0.336772 0.018132 0.391641 -0.282175 0.875782 -0.125958 -0.776952 0.616831 0.919165 0.34799 -0.184496 0.46943 0.445732 -0.762207 0.135502 -0.940077 0.31288 0.0343257 -0.0635401 -0.997389 -0.970297 -0.199426 -0.13694 0.387783 -0.377757 0.840788 0.974453 -0.186029 0.125838 0.00715204 -0.653396 -0.756982 -0.0690271 0.871464 0.485578 0.518056 0.207654 0.829758 0.561397 0.618199 0.550149 -0.930498 -0.279726 0.236489 0.182977 -0.351471 0.918144 0.542968 0.83847 0.0464067 -0.201249 0.970404 -0.133471 -0.818179 -0.212336 0.534318 0.658174 -0.450758 0.603012 0.578822 0.546085 0.605604 0.463913 0.850325 -0.248461 0.54786 -0.722529 -0.421664 0.587192 -0.315503 0.745428 -0.844806 -0.455156 -0.28131 -0.0718393 -0.745591 0.662521 0.951588 -0.211695 0.222859 0.754574 0.646193 -0.11425 -0.12874 0.0295432 0.991238 -0.719857 0.68302 0.123653 -0.84128 -0.0756867 -0.535275 -0.764349 -0.176428 0.620197 -0.400534 -0.810644 -0.427116 -0.477073 -0.716729 -0.508627 0.46559 -0.860363 -0.207368 -0.817436 0.423536 0.390404 0.942662 -0.143635 0.301258 0.0304336 0.929944 0.36644 -0.853927 -0.491056 -0.172258 -0.783881 0.609668 -0.11762 -0.814315 -0.320275 -0.48406 -0.412029 -0.893031 0.180906 0.828877 -0.453725 -0.327255 0.569535 -0.808947 0.145722 0.0572112 -0.452696 -0.889827 -0.0806767 -0.942606 0.324014 0.162128 -0.15545 -0.974448 -0.992624 -0.00346867 -0.121184 0.327136 -0.849279 0.414375 -0.298734 0.211681 0.930564 0.864317 0.462885 0.196705 -0.0314196 0.636606 -0.770549 -0.462942 -0.524033 -0.714894 0.536598 0.780129 -0.321654 0.472139 0.86546 0.167526 0.163911 -0.699981 0.695097 -0.303989 0.940864 -0.14955 -0.121672 0.21056 -0.96998 0.24588 -0.961603 0.121912 -0.672875 -0.591978 0.443622 0.788737 0.227524 -0.571075 -0.507267 0.383058 0.771976 -0.623912 0.0439751 0.780256 0.659559 -0.292246 0.692513 0.3723 0.367173 0.852395 -0.58242 -0.683733 -0.439654 0.830333 -0.321743 -0.455004 0.212559 0.343128 0.914922 -0.0651564 -0.568102 -0.820375 0.402045 -0.798125 -0.448728 -0.519463 -0.690264 0.50368 0.388974 -0.639267 0.663353 -0.555665 0.70469 -0.44119 -0.653267 -0.234049 0.720044 0.258899 -0.892702 0.368855 0.679667 0.67931 0.27675 -0.241336 0.393932 0.88689 0.554104 -0.270249 0.787359 0.657956 -0.257385 0.707705 -0.589683 0.202358 0.781873 0.979708 0.0116533 -0.200092 0.321751 0.269038 -0.907797 0.243315 0.969837 0.014616 -0.408357 0.152788 0.899944 -0.711368 0.463021 -0.528741 -0.0795003 0.975239 -0.206371 -0.810248 -0.539506 -0.22898 -0.819216 0.368799 0.439172 -0.32561 -0.871866 0.365826 0.0148661 -0.453726 0.891017 -0.030936 0.543849 0.838613 -0.734781 -0.207256 -0.645865 -0.0458021 0.997575 -0.0524035 0.301791 0.04639 0.952245 0.0940878 0.410619 -0.90694 0.343685 0.898276 -0.273826 -0.789222 0.55558 -0.261647 -0.421414 0.615137 0.666346 0.367808 0.0595578 0.927993 -0.017861 0.980994 0.193216 0.287254 -0.957682 0.0181923 -0.984518 0.15586 0.0802025 0.492051 0.829405 -0.264524 0.96541 0.260175 0.0171149 -0.492265 -0.784677 -0.376772 -0.892287 -0.0637154 0.446951 0.594646 -0.351504 -0.723078 -0.72498 -0.478959 0.494977 0.811394 0.368674 -0.453563 0.87772 -0.0920288 0.470254 -0.0111342 -0.435503 0.900119 0.752618 0.110142 -0.64918 0.701099 0.681577 0.209555 -0.0120633 -0.830108 -0.557472 -0.723911 -0.351431 -0.593674 0.0279182 0.991465 -0.127352 0.818374 0.0615509 0.571381 0.693964 -0.632876 0.34334 0.781048 0.424924 -0.457606 -0.541268 0.837544 0.0744911 0.174457 -0.632868 -0.754349 -0.566183 -0.140903 -0.812147 -0.620886 -0.701728 -0.349397 0.741461 0.397098 -0.540878 0.0681568 -0.925857 -0.371676 -0.101133 0.346321 -0.932649 0.141758 -0.561048 0.815555 -0.915732 -0.355851 -0.186563 0.686264 0.394608 0.611004 0.779377 0.437339 -0.448671 -0.388922 -0.0142461 -0.921161 0.207216 0.840931 -0.499896 0.925034 0.162524 -0.343363 0.717817 -0.678407 0.156533 0.797397 0.307425 0.519276 -0.48605 -0.583331 0.650754 -0.722297 0.480444 -0.497454 0.321343 0.377485 -0.868472 0.984674 0.0267499 -0.17234 -0.519169 -0.85314 -0.0511414 -0.148998 -0.934447 -0.323433 -0.0426843 0.498227 -0.865996 -0.344118 -0.840371 0.41876 -0.960158 -0.278844 -0.0185017 -0.808082 0.490254 -0.326578 -0.229388 -0.524722 -0.819785 -0.0886586 -0.754946 0.649766 -0.533674 0.00485082 0.845676 0.344877 -0.913908 0.214082 0.693482 -0.0241328 -0.72007 0.063592 -0.792479 -0.606575 -0.62989 -0.768347 0.113494 -0.502271 0.864485 -0.0197448 -0.612011 -0.217698 0.760296 0.152558 0.986083 0.0660733 0.703219 0.273794 0.65614 0.269695 -0.624032 0.733382 -0.433523 -0.897826 0.0772418 0.137567 -0.976125 -0.168093 0.937202 0.188617 -0.293386 0.943523 -0.286458 0.166451 0.358569 0.906432 0.223179 0.00745204 -0.0730191 0.997303 0.844302 0.122899 -0.521585 0.513964 -0.303794 0.802216 0.259556 0.239371 -0.935592 -0.643232 0.241577 0.726562 0.565307 0.639734 0.520738 -0.150863 -0.366398 0.918147 -0.936196 0.3355 0.104769 0.968517 0.0163882 -0.248406 0.072674 0.719852 0.690313 0.0221219 0.960006 -0.279104 -0.319849 -0.94538 -0.0628734 -0.0505521 0.240156 -0.969417 -0.0373396 0.0777784 0.996271 -0.173768 -0.402411 -0.898816 -0.935006 -0.354532 0.00839583 -0.111595 -0.0564201 -0.992151 -0.462031 0.88041 -0.106799 -0.00879871 0.654369 0.756125 0.926135 -0.326279 -0.189253 0.349795 -0.229577 0.908261 -0.321795 0.6238 -0.712265 -0.878197 -0.45084 -0.15973 0.849382 0.140978 -0.508602 0.199154 0.0288869 0.979542 -0.162772 0.859076 0.485276 0.313339 -0.133977 0.940143 0.264851 -0.696411 0.666982 0.574862 0.0226869 -0.817936 -0.363992 0.666121 -0.650993 -0.756791 -0.563363 -0.331495 0.976389 0.153015 0.15248 0.147906 -0.17432 -0.973518 -0.182807 -0.248367 0.95126 0.344819 -0.0860797 0.934714 0.347653 -0.288332 -0.89219 0.196964 -0.978111 -0.0671136 0.823659 0.184789 -0.536134 0.544617 0.73023 0.4125 0.722619 -0.234931 -0.6501 0.835799 0.547719 -0.0380125 0.11318 0.782649 0.612087 0.713715 -0.547718 -0.436596 -0.915127 -0.282039 0.288093 0.121466 -0.980307 0.155707 -0.235192 0.203088 -0.950495 -0.959408 0.280634 0.0279523 -0.764012 -0.613704 -0.199129 0.373484 0.451007 0.810618 0.0726093 -0.969992 0.232042 0.827597 0.410361 0.382997 -0.287339 0.940785 -0.179889 0.797457 0.372457 0.474698 0.488895 -0.666348 -0.562994 0.718973 0.671833 0.178096 0.506419 -0.26869 0.819356 0.560711 -0.159487 0.812507 -0.435835 -0.899995 -0.00752984 0.11246 -0.068916 -0.991264 -0.78719 0.390665 0.477192 -0.00474156 -0.477571 0.87858 0.171693 -0.763307 0.622804 -0.696647 0.710259 0.10107 0.121231 0.208096 0.970566 -0.611881 -0.710195 0.348173 -0.616238 0.429128 -0.660378 -0.870824 0.242079 0.427859 0.901334 0.389752 -0.188919 -0.81812 0.569083 -0.0826136 -0.427395 0.659875 -0.617979 0.71265 0.599105 0.364971 -0.607251 -0.0856488 -0.78988 0.608803 0.676416 -0.414512 0.0791369 0.931316 -0.355511 0.00420426 -0.636207 -0.771507 -0.722871 -0.441387 0.531635 -0.112802 -0.852878 -0.50978 0.647325 -0.239316 -0.72367 0.124981 -0.628186 0.76796 0.760127 0.613561 -0.21389 0.940817 0.259763 -0.217684 0.384882 0.584457 0.714336 0.749284 -0.607952 0.262618 0.187505 0.328087 -0.925852 -0.334672 -0.552191 -0.763596 0.933845 -0.216954 0.284366 -0.920626 0.080385 0.38208 -0.769927 0.230552 -0.595028 0.150699 0.150167 -0.977108 -0.125829 -0.964681 -0.231425 -0.777096 -0.627649 0.0466713 0.312162 0.0366784 0.949321 0.910944 -0.276394 0.306247 -0.669163 0.086727 0.738038 0.362869 0.404587 -0.839426 -0.0325073 0.972984 -0.228572 -0.023614 0.288213 -0.957275 0.00889331 -0.684772 -0.728703 -0.923014 -0.347644 -0.164888 -0.843211 0.0278641 -0.53686 -0.93393 -0.00305896 -0.357442 0.228925 0.30885 -0.92315 -0.56278 -0.434435 0.703239 0.603889 -0.789217 0.111603 0.293664 0.955585 0.024874 0.938629 -0.158636 0.306284 -0.404632 0.80648 0.431118 -0.310712 0.786513 0.533718 0.906414 0.313539 0.283033 -0.900682 0.250455 -0.355027 -0.499363 -0.276429 0.821111 0.338292 0.40026 -0.851675 -0.787021 -0.306594 -0.535349 0.87474 0.32877 -0.356007 -0.938345 0.325986 0.115074 -0.971498 -0.124315 -0.201835 -0.347086 0.566723 0.747232 0.584956 -0.638503 -0.500141 0.967295 -0.0763932 0.241876 0.934441 0.207807 -0.289199 0.238138 -0.970034 -0.0482045 0.0822414 -0.341075 -0.936432 0.175315 -0.16739 -0.970178 -0.0472164 0.0506586 0.997599 -0.937927 0.342528 0.0544768 0.253762 0.759795 0.598596 0.404747 0.792046 -0.456993 0.918718 0.119548 0.376385 -0.422971 0.803216 0.419451 0.451973 -0.212394 -0.866377 0.175958 0.414507 -0.892873 -0.426667 0.628363 0.650473 -0.503157 0.768612 -0.395056 0.999992 -0.00200423 0.00357137 -0.235388 -0.461829 -0.855165 0.877935 -0.0416679 -0.476963 0.700264 -0.649006 0.297358 -0.556343 0.817016 -0.151552 -0.24833 -0.751729 -0.61093 0.200993 -0.916908 0.344791 -0.177671 -0.607338 0.774321 -0.148116 -0.909621 -0.388138 0.164675 -0.793184 0.586295 -0.968536 -0.162918 -0.188136 0.772836 0.284528 -0.567246 -0.179392 0.605617 0.775272 0.319238 -0.0973224 -0.942664 0.202647 -0.979039 0.0203931 -0.853223 0.33489 -0.399824 0.304665 0.907293 -0.289824 0.959927 0.274214 -0.0578466 -0.666747 -0.354962 -0.655324 -0.8908 -0.0492463 -0.451718 0.110208 -0.0230374 -0.993642 -0.951419 0.121822 -0.282773 -0.973714 -0.17928 -0.1405 -0.925702 -0.354996 0.130591 -0.407452 0.855376 0.319865 0.595967 0.706451 -0.381773 0.695221 0.100384 -0.711752 0.673927 -0.663239 0.32548 0.262389 -0.915618 -0.304623 -0.781727 -0.108461 0.614117 -0.571509 0.80433 0.162578 0.331885 -0.541892 0.772143 -0.268645 0.725304 0.633849 -0.909427 0.246689 -0.334795 0.900055 -0.230453 0.369854 -0.545132 0.0755368 0.83494 -0.902554 0.309987 -0.298839 -0.595495 0.0124219 0.803263 0.222397 0.0957217 0.970246 -0.48446 -0.860099 -0.159775 0.711383 -0.684745 -0.158298 -0.533847 0.287859 0.795075 -0.389191 -0.757601 -0.523995 0.121243 -0.983245 -0.136119 -0.321081 0.277701 -0.905422 0.979488 0.0519986 0.194676 0.536227 -0.235385 0.810589 -0.242925 0.807091 0.538137 -0.182711 -0.745533 -0.640934 0.313288 -0.947648 -0.0617621 -0.520617 -0.568131 0.637327 0.58996 0.797471 0.126445 0.0317823 -0.547143 -0.836436 0.264802 0.305892 0.9145 -0.556894 0.797426 -0.232337 0.878278 0.427979 0.213217 0.382553 -0.813373 0.438266 -0.93944 -0.334797 -0.0732422 -0.22719 0.830752 -0.508169 -0.649085 0.212606 0.730402 0.554355 0.715103 0.425814 0.780525 -0.605334 -0.156048 0.373648 0.0474434 0.926357 -0.283915 -0.0725807 -0.956098 0.179072 -0.835184 0.52 -0.409379 0.570483 0.712009 -0.940222 0.222459 0.257866 0.114072 0.500145 0.858395 -0.166578 -0.67403 0.719677 -0.92983 -0.239945 -0.279003 0.860345 -0.203995 0.467111 0.547903 -0.485198 0.681459 -0.362128 -0.883186 0.29807 -0.220895 0.789956 -0.571992 0.258212 -0.800455 0.540923 -0.726652 -0.378975 -0.573022 0.864144 0.473759 0.16973 -0.822727 0.230625 0.519549 0.228022 -0.967955 0.105212 0.231275 0.267125 -0.935498 -0.644083 0.73644 -0.206916 0.166807 -0.379979 0.90983 -0.433781 0.861279 0.264635 0.633612 -0.596491 -0.492681 0.450855 -0.230566 0.862305 -0.847749 -0.510023 0.145594 0.380956 -0.477565 0.79171 0.846815 -0.503152 -0.17246 0.682384 0.707172 -0.185096 0.618475 -0.482856 0.61995 0.705072 0.50791 -0.494875 -0.879014 -0.476793 0.00173735 -0.487784 0.434356 -0.757233 0.120128 0.160092 0.979765 0.11551 -0.773948 0.622625 -0.00461819 -0.934039 -0.35714 -0.322384 -0.606467 -0.726819 0.103882 0.962475 -0.250699 -0.194723 -0.0131142 -0.980771 0.29313 -0.623556 0.724743 0.87031 -0.0882102 0.48454 0.873068 -0.172613 -0.456023 -0.808428 0.5878 -0.0305719 0.0960462 0.140932 0.985349 0.898395 -0.0817436 0.431514 -0.27088 0.713472 -0.646205 -0.888181 -0.457253 0.0453237 0.718227 0.421478 0.55363 -0.396207 -0.0280971 -0.917731 0.566731 -0.302964 -0.766178 0.0954793 -0.381154 0.919568 0.158625 -0.583837 0.796224 -0.596032 -0.802818 -0.0151496 0.337807 0.847836 0.40873 0.461303 0.753343 -0.468695 -0.128043 0.345778 0.929539 -0.815601 0.476114 0.328802 0.372884 -0.793346 -0.481207 -0.707631 -0.101673 -0.699229 -0.703623 -0.657754 -0.268838 0.197148 0.74383 0.638631 -0.988761 0.144862 -0.0369541 -0.684759 -0.303722 0.662464 0.140876 0.642726 -0.753032 -0.847675 0.456028 -0.271083 -0.604364 -0.748488 0.272965 0.522547 0.668992 0.528578 0.707845 0.574335 0.411212 -0.552798 0.758386 -0.345348 -0.190381 0.981603 -0.0144779 -0.437425 0.412741 -0.798939 0.259673 0.96271 0.0758908 -0.670174 0.741507 -0.0321749 0.970917 0.0993694 -0.217819 -0.629971 -0.493272 -0.59985 -0.421175 0.727468 0.541666 0.308778 0.688161 0.656575 -0.572936 0.635591 -0.517463 -0.111513 -0.381077 -0.917794 0.0625086 -0.955231 -0.289183 -0.172461 0.808181 -0.563117 -0.780937 0.244271 -0.574865 -0.555958 -0.823709 0.111421 0.482423 0.401927 -0.778282 -0.895642 0.166865 0.412288 -0.228172 -0.410086 0.883044 0.667469 -0.576952 0.470757 0.785515 -0.341764 0.515911 -0.0649136 0.912322 0.404295 -0.806262 0.00803066 -0.591505 0.63