# vtk DataFile Version 4.0
Generated by libgran
ASCII
DATASET POLYDATA
POINTS 1686 FLOAT
-32.511 1.28854 6.85766 -31.3261 0.631763 8.23074 -33.1012 1.20914 5.17543 -32.0755 2.22691 6.23061 -33.4156 0.564368 9.37903 -33.5565 1.65382 4.04339 -31.7301 -0.048037 12.9621 -31.82 -1.69823 13.5832 -32.0842 0.616659 11.8663 -32.0406 -0.560233 10.5191 -31.4897 1.08636 10.5066 -30.7223 1.09295 9.44367 -31.8813 -3.11403 16.2583 -30.9181 -2.94307 15.3577 -30.8235 -1.80271 15.2847 -29.9534 -0.35521 14.8138 -29.3338 -0.0907974 15.5529 -29.2042 0.379722 14.118 -33.3271 -3.81311 14.1881 -35.5311 -4.10414 15.4435 -34.3596 -3.76349 14.9148 -34.7423 -3.89198 16.6165 -36.2832 -4.55965 14.4395 -34.2278 -4.20605 17.6678 -34.3744 -2.79961 18.0379 -34.6743 -2.32079 19.1037 -33.3912 -2.3264 19.4246 -33.2358 -3.76867 22.1375 -34.157 -2.71861 22.7986 -33.4385 -2.81964 21.0942 -33.2968 -5.03354 22.543 -34.478 -6.34127 22.1256 -33.8749 -2.75005 24.4583 -32.6922 -3.38784 19.8314 -33.9257 -6.92576 20.0993 -34.7719 -8.02488 19.7592 -32.69 -7.39875 19.9677 -31.605 -7.62242 19.9208 -31.0372 -6.52711 21.2451 -31.7196 -5.92689 22.7343 -30.5521 -5.14821 21.4556 -34.1516 -9.25512 20.6966 -26.0077 -11.7474 22.9358 -26.9262 -11.2236 22.1295 -28.1964 -12.1386 21.9669 -25.6208 -11.1264 24.7869 -27.0063 -11.1418 25.2131 -29.6305 -13.0669 21.997 -31.4219 -10.4398 19.5535 -30.373 -9.8313 18.8454 -30.9491 -11.6132 19.963 -32.4699 -11.3983 20.3248 -30.2269 -12.683 20.9302 -33.3098 -10.4759 21.2535 -29.3742 -11.0176 17.8298 -29.2858 -12.1772 16.5931 -28.3893 -14.3733 17.103 -28.005 -14.0994 15.8597 -29.2307 -13.3567 15.9636 -27.1752 -13.8145 18.1995 -26.1835 -13.5842 15.6377 -25.6286 -13.6013 18.6949 -25.5285 -14.7173 18.8626 -25.3855 -11.5631 12.1605 -26.3727 -12.0529 11.8226 -26.7686 -10.653 12.6632 -24.1257 -11.5666 12.5857 -23.9385 -12.1428 11.0445 -24.065 -11.4965 14.4479 -24.8311 -12.3513 15.602 -36.0778 15.1886 3.15483 -36.0405 14.6379 1.24882 -35.9372 13.652 1.1171 -35.2705 15.7616 4.40565 -34.8372 15.6559 5.4082 -33.9068 16.0027 5.52679 -34.346 15.4876 6.26286 -39.0745 13.918 0.323175 -39.8338 14.5941 -0.532594 -38.0893 15.2999 -0.00232616 -38.4522 13.5877 1.18313 -39.2388 12.138 0.502023 -39.9602 11.0454 0.835603 -40.6901 9.89605 1.43964 -44.8321 10.3576 0.240218 -44.8561 9.48573 -0.545361 -45.3675 11.7006 -0.64763 -44.4787 11.838 1.53576 -41.5792 9.34145 1.22067 -40.4846 8.36187 0.554256 -40.6452 8.6244 -0.735718 -40.255 7.68251 -1.25244 -40.3442 6.90539 0.122799 -40.4457 10.102 -1.67082 -41.9321 9.10248 -1.45121 -40.3722 10.49 -2.95048 -40.3538 5.46714 -0.344571 -40.9096 5.43082 1.17724 -40.6773 7.06269 -7.70465 -39.7497 6.80848 -8.62275 -40.7607 5.33677 -8.45256 -41.0784 8.60081 -9.39644 -41.7577 8.02995 -9.99336 -42.1955 8.7975 -8.31342 -42.841 7.63087 -10.7702 -42.8747 8.22664 -8.91034 -41.7255 3.81888 -8.28311 -42.0338 9.11182 -6.1718 -42.6263 9.09294 -7.37394 -42.2657 9.08437 -4.96704 -42.7496 8.8874 -3.97133 -43.5943 8.53714 -3.32386 -42.815 8.38613 -2.61182 -44.6372 9.88023 -3.67637 -43.3025 9.65789 -1.53604 -39.0367 3.37111 -10.5336 -37.684 3.58123 -11.5584 -38.3574 2.31638 -10.2111 -39.3833 4.60463 -10.178 -39.7253 5.82973 -10.6097 -41.3706 5.71771 -10.649 -38.8927 0.756697 -9.82396 -42.403 5.25675 -11.2591 -41.6371 0.316911 -7.28287 -40.9785 1.49194 -7.41799 -42.1215 2.19856 -7.69498 -39.7718 2.59818 -7.72609 -25.8912 12.9803 19.7224 -26.3534 13.9837 20.4624 -24.7872 14.0519 20.1333 -27.1878 12.3054 18.5636 -29.0595 12.9077 19.6764 -29.712 10.4858 17.9599 -29.7163 12.0075 16.8719 -30.4165 9.42556 17.8171 -29.9586 8.66593 18.4412 -28.9228 11.8302 16.2895 -32.0908 9.07462 17.9531 -30.9562 9.43761 16.4497 -32.7076 8.89998 19.5138 -26.6825 4.14788 13.4124 -26.5163 3.02505 13.3454 -27.003 5.37067 13.8248 -28.5485 4.66979 13.7524 -27.9975 2.34427 14.0921 -27.7238 1.9259 12.6755 -28.47 1.70396 15.4438 -27.3681 1.11513 11.5491 -27.0175 1.30326 10.5515 -29.8289 8.94553 15.5561 -30.9511 8.92555 14.8431 -28.5077 9.00478 15.1071 -30.9032 7.38342 13.9488 -31.989 8.79812 13.6651 -31.434 6.14324 13.9026 -30.0202 5.62295 13.8299 -33.1957 6.46975 5.67341 -34.1911 6.00497 4.9243 -32.7675 7.30489 6.39303 -32.3365 5.64946 6.89745 -35.9455 5.33779 5.39344 -34.0284 3.86454 6.6761 -37.0904 5.81256 4.83782 -36.7712 5.8459 3.35742 -39.9051 4.45142 3.29542 -38.3275 4.06301 3.50257 -41.0568 4.87172 2.78352 -41.2144 4.31641 1.03953 -37.2312 5.51445 2.48598 -37.8067 3.38131 4.79341 -32.4288 5.64268 11.6257 -31.6981 7.89731 10.6012 -33.0304 8.26551 11.676 -33.2544 8.65122 12.6894 -34.0715 7.65149 13.1227 -32.2641 10.1761 12.8681 -34.5591 6.38133 13.7838 -34.5366 3.27609 9.24805 -34.1473 3.16904 10.5149 -33.549 3.39964 7.52916 -33.5634 3.48211 11.745 -26.1915 23.4346 28.1652 -26.6478 22.1597 28.6474 -26.2185 22.945 29.7274 -25.9354 23.6259 26.8744 -26.2832 25.0887 27.5242 -27.0109 26.29 27.625 -23.3856 23.5779 28.0907 -23.0576 23.7582 30.4059 -23.8886 24.3746 31.5897 -22.788 23.546 29.1212 -22.3568 23.2408 28.1444 -24.0804 25.4241 28.6909 -23.8571 24.4803 32.822 -25.78 27.5092 33.0515 -25.3968 28.4644 33.8963 -26.4144 29.3446 33.191 -26.1247 26.8896 32.1993 -25.1851 26.1721 31.922 -23.7987 28.9853 34.9149 -25.9279 25.3314 31.2378 -21.2044 25.9134 34.6265 -21.4095 24.6072 34.7676 -21.0479 27.0032 34.6674 -20.0188 27.5932 35.5045 -21.0617 28.4428 35.1299 -18.4746 27.2339 36.2072 -18.6175 28.4898 35.8795 -22.0585 29.3891 35.0459 -20.1291 29.5489 34.6467 -28.2487 23.8248 32.9613 -28.665 26.0686 33.3892 -30.7765 24.9945 35.4311 -30.6811 23.8906 34.5397 -30.2852 23.2644 32.7877 -26.949 23.5451 32.8506 -32.072 21.1251 30.8032 -32.6552 21.9569 32.2769 -30.8168 20.8754 30.4381 -29.964 20.5481 30.0313 -32.7429 22.9683 33.5644 -33.6478 22.5759 33.3992 -35.4124 23.116 33.213 -36.1575 23.0878 31.9078 -35.7812 22.2201 31.415 -37.1001 24.5191 31.138 -37.6023 24.2987 32.7696 -38.0288 25.0363 31.7879 -36.8557 22.3035 33.2308 -37.6339 25.2618 34.3844 -37.7619 26.3377 32.5103 -41.5417 25.9385 35.7205 -40.9345 27.0312 35.2673 -40.0042 26.2399 34.7689 -38.6055 26.1695 34.4902 -41.472 26.3014 33.5505 -37.4787 26.3517 34.1358 -36.6883 9.65445 22.1047 -36.9105 8.65325 22.9502 -38.1779 9.96898 22.7681 -35.2958 9.34874 21.2756 -36.3058 10.7562 21.218 -34.0524 7.97803 21.0444 -33.0808 7.16965 20.3288 -33.605 6.47202 19.5886 -31.9361 6.61416 19.6254 -34.1723 5.46193 18.9359 -34.3121 5.04756 20.3036 -30.1484 4.89506 19.1824 -29.6954 5.8818 18.8601 -41.3228 10.9047 21.5723 -42.0043 10.2628 22.5164 -43.3936 9.99723 21.714 -41.4465 12.3769 21.806 -42.7351 12.2181 21.1149 -39.8765 8.27724 19.935 -39.9172 9.87145 20.595 -39.362 7.87286 20.848 -38.823 7.42477 21.5614 -37.1048 7.5923 20.873 -38.0214 6.69843 22.1174 -30.205 16.1533 22.3261 -31.3382 16.2532 23.0147 -30.2041 15.9021 24.2075 -29.1847 15.5734 21.6463 -30.0894 15.3449 20.6154 -32.3005 17.0732 23.2489 -31.8311 18.0386 24.6432 -30.7752 18.6778 26.1358 -33.9565 11.1768 19.8068 -33.0226 10.8385 20.6571 -32.2022 11.7931 19.808 -34.845 12.1329 19.5516 -35.8611 11.3358 20.2983 -31.0183 11.841 20.5897 -30.7971 12.816 20.5695 -29.6293 20.0132 26.5858 -29.694 18.4509 26.3293 -30.4718 20.1246 28.7532 -31.8459 20.1878 27.6433 -29.4754 16.9091 26.452 -28.8909 15.7236 27.3049 -31.5094 20.4674 25.297 -32.5149 19.8586 26.2975 -31.3514 21.7783 25.4541 -32.8554 22.5446 25.099 -34.4736 22.3885 25.1746 -34.3894 23.7436 23.4862 -5.90446 24.5604 37.9024 -4.9115 24.5107 38.01 -7.1554 24.1043 37.9554 -5.39143 23.8179 37.4718 -7.9335 25.1993 39.0598 -8.73546 23.7634 38.438 -8.783 24.8416 38.672 -8.79008 25.6999 39.1852 -4.6632 22.808 37.668 -3.60078 23.494 37.0422 -4.24811 21.1181 37.6829 -9.62221 22.9092 37.3715 -5.48252 19.3167 38.9906 -5.60262 20.2526 37.7764 -6.30466 18.1502 39.2178 -6.73737 17.1593 39.5124 -3.69759 20.4497 38.5987 -0.958864 24.7719 38.0291 -2.08556 24.9126 37.3371 -2.27573 23.6944 37.2098 0.116659 26.3063 37.9188 -2.08152 26.5597 37.0191 -2.42813 22.4563 37.0309 -2.23139 28.3227 37.4202 0.492604 30.6853 37.7775 1.32751 29.4527 38.474 -2.30131 29.9809 37.1324 2.31168 29.0555 37.6465 -3.07062 29.2941 38.4927 -20.7631 31.5714 42.367 -19.5512 31.1268 42.0484 -20.825 31.5432 44.0679 -22.0176 31.0063 42.6627 -18.2714 29.9541 44.4378 -18.6517 30.2915 46.0005 -17.7154 29.3433 42.9141 -15.3993 28.5325 40.9781 -16.1725 28.3324 42.0412 -14.4502 27.1921 40.7769 -17.2222 28.1989 42.2421 -17.0523 27.0437 43.1779 -16.1445 26.5878 42.5802 -13.2607 27.1787 41.5595 -14.0472 26.6644 42.2068 -16.8733 26.1895 44.5101 -11.18 23.6984 42.148 -12.4104 24.005 42.5551 -11.0603 24.1951 41.2884 -10.2618 23.8509 41.7824 -12.6911 24.9385 43.6405 -13.0687 23.8823 44.4266 -13.3643 26.3753 43.5028 -10.3125 25.3316 40.9741 -14.9683 26.2602 42.9469 -10.1012 27.4279 38.9126 -9.49194 26.2972 38.5402 -10.6705 26.9596 40.2837 -10.7839 27.9329 40.4833 -11.6749 27.4809 38.9783 -10.5963 27.2889 41.225 -19.8422 34.9017 39.7404 -19.9911 35.8618 38.1008 -18.8727 35.3314 40.5434 -18.7937 36.9321 40.3686 -18.4683 36.656 41.273 -19.0198 37.484 41.1713 -19.0497 38.6218 40.6792 -19.862 35.5229 37.0506 -20.6665 36.9058 37.5996 -17.9468 37.8667 41.991 -19.0441 40.4615 44.6537 -20.7628 40.1743 44.0747 -20.9097 40.7004 45.1042 -21.028 39.4529 42.6889 -22.3633 39.4677 43.8965 -19.6608 39.3095 41.4757 -17.9766 39.0045 41.4989 -20.8665 42.4431 46.5641 -19.7597 43.0994 45.2891 -20.283 41.9349 47.6454 -21.4804 41.2953 46.4048 -19.7065 43.2445 44.0322 -18.5358 43.9651 44.8667 -20.4699 39.4521 48.6234 -21.3612 38.2902 51.6411 -20.7207 39.4107 51.3211 -21.8015 40.1378 52.0319 -19.7827 39.2569 50.0877 -18.2572 40.1859 49.9964 -22.7317 40.8806 51.8656 -16.6536 28.1956 38.6901 -15.9606 27.9418 37.5841 -16.1504 29.3196 37.4183 -15.6807 26.4014 37.5605 -17.2763 29.614 36.4527 -14.6062 25.8838 38.7119 -13.151 26.7394 38.8418 -18.6823 29.5262 35.4127 -18.9675 30.6718 34.2542 -18.256 29.9733 34.1771 -18.0724 30.9092 33.8766 -19.2456 31.728 35.9693 -18.8479 31.1587 36.9987 -21.8144 30.1532 37.0236 -22.3032 31.365 35.9963 -22.0015 33.5076 41.5652 -23.6066 32.8269 41.6686 -21.3821 32.6716 40.7373 -21.8114 32.5925 39
[...]
POINT_DATA 1686
FIELD FieldData 1
normals 3 1686 double
-0.384037 0.402849 -0.8308 0.800901 -0.253932 0.542287 -0.206161 -0.482254 -0.851427 0.819579 0.535514 0.203753 -0.298556 0.859246 0.415403 -0.249105 0.926934 -0.280608 -0.378365 0.916704 -0.128428 -0.468269 -0.733493 0.492659 0.0242356 -0.252008 -0.967422 0.0194348 -0.924884 -0.379751 0.570314 0.72171 -0.392272 0.197093 -0.71512 -0.67064 -0.425578 -0.825982 0.369643 0.537608 -0.655021 -0.530965 0.632233 0.485337 -0.603929 0.237804 0.962168 0.132971 -0.381772 0.697756 -0.606124 0.511399 -0.227236 -0.828755 -0.799812 0.595098 -0.078475 -0.938908 0.204829 -0.276581 0.232645 0.545476 -0.805191 -0.15006 0.416981 0.896442 0.186868 -0.660338 -0.727347 0.664524 -0.731049 0.154836 0.517936 0.67539 0.524968 -0.817851 -0.196566 0.540816 0.465251 -0.202173 0.861782 0.715296 -0.657957 0.235468 -0.205988 0.392102 0.896563 0.512552 0.291071 -0.807817 -0.776368 -0.606913 0.170025 -0.404753 -0.700816 -0.587394 0.488083 -0.423542 0.763142 0.233782 -0.859268 -0.454977 0.821727 0.123121 0.556423 -0.0244225 -0.975998 0.216405 0.413972 -0.596114 -0.687951 0.671078 0.372444 0.641046 -0.103267 0.722867 0.683227 -0.579176 -0.122642 0.805924 0.588334 0.656038 -0.472734 0.644714 -0.254241 0.720906 -0.330164 0.937333 -0.111352 -0.588271 -0.413537 -0.694927 -0.682027 -0.501473 0.532319 0.804679 0.568569 0.170939 -0.580827 0.553204 0.597164 -0.752038 -0.426792 -0.502282 -0.405061 -0.914265 0.00669769 0.643796 -0.305759 -0.701454 0.877853 -0.259173 0.402745 -0.642937 -0.0442281 0.764641 -0.155661 -0.810627 0.564494 -0.197037 0.966584 0.163988 0.354971 -0.88052 -0.314133 -0.266486 -0.279097 -0.922545 0.519889 -0.116197 0.846294 0.904141 0.157693 -0.397067 -0.321546 0.900392 -0.293092 0.694182 0.674937 0.250144 0.917354 0.357487 0.17511 0.852409 -0.461752 0.245324 0.752286 0.654242 0.0776777 0.868112 -0.0529973 -0.493531 -0.119031 -0.542728 -0.831431 -0.51499 0.857148 0.00911879 0.391721 0.0495011 0.918751 0.578897 -0.526686 -0.62248 -0.331081 0.0206022 0.943377 -0.435021 -0.875401 0.210782 -0.0653748 0.163725 0.984338 -0.0281096 -0.386944 -0.921675 -0.13136 0.598931 -0.789954 0.87261 0.409318 0.266478 -0.439239 -0.515046 0.736069 0.491166 -0.168229 0.854667 0.930404 0.346818 0.118596 -0.167543 -0.839085 0.517557 -0.926858 -0.16293 -0.338213 0.817601 0.542811 0.192056 0.789827 0.508859 0.342398 0.00319806 -0.940886 -0.338709 -0.724579 -0.1517 0.672289 -0.00532348 -0.997654 -0.0682529 -0.554835 0.831461 -0.0288288 -0.578885 -0.0403745 -0.814409 0.0194226 0.511574 -0.859019 -0.504976 0.859862 -0.0750843 0.883737 -0.44305 0.150715 -0.210788 0.536531 0.817131 -0.371375 0.799062 -0.472843 0.0188401 -0.142833 -0.989568 -0.0703132 -0.919952 0.385674 0.57092 0.678504 -0.462258 -0.915472 -0.320985 -0.242652 -0.497488 -0.290443 -0.817404 0.0606874 -0.518299 -0.853044 -0.495118 -0.55462 0.668772 -0.290102 0.853177 0.433509 0.637497 0.59897 -0.484595 -0.373473 -0.872738 -0.314399 -0.31297 0.647241 0.695075 -0.992236 0.0763816 0.0981546 -0.804058 -0.450544 0.387945 -0.0910636 -0.475462 -0.875011 -0.124788 0.120315 0.984862 -0.591327 -0.645151 0.483851 0.219152 -0.727104 0.650609 -0.373259 -0.745983 -0.551532 -0.451 0.699654 0.55415 -0.0328987 -0.896627 0.441564 -0.811844 0.546363 0.205905 -0.0325241 0.39536 0.91795 -0.231054 0.796734 -0.558416 -0.454994 0.876398 0.157823 -0.846488 0.367919 0.384829 0.506238 0.578038 -0.639997 -0.167156 -0.686812 0.707353 0.499887 0.865598 -0.0292005 -0.841843 0.359509 -0.402558 -0.803543 -0.471535 0.363281 -0.368156 -0.87287 -0.320249 -0.228798 0.0105726 -0.973416 -0.289053 0.906469 -0.307835 0.947653 0.26856 0.172711 -0.19534 0.975176 -0.104275 0.259071 0.837678 -0.480809 -0.389311 -0.480985 -0.785551 -0.851468 0.522424 -0.0455585 0.714709 0.590625 -0.374637 -0.907256 -0.193854 -0.373239 -0.69564 0.0313603 -0.717706 0.18482 -0.93669 0.297411 0.180612 0.584976 -0.790685 -0.889303 -0.123594 -0.440302 -0.431408 -0.883219 0.183882 -0.612808 0.762274 -0.208338 -0.784952 -0.227343 0.576338 0.349602 0.135646 -0.927027 0.168175 0.0527026 0.984347 -0.884969 0.434787 0.166704 -0.718779 -0.68805 0.0997209 0.564495 0.788001 0.245764 -0.981008 0.0871249 0.173298 -0.76243 0.00727888 0.64703 -0.488663 -0.411098 -0.76955 0.289989 -0.647591 0.70465 0.844345 -0.399669 -0.356856 -0.493818 0.587797 -0.640811 0.777717 -0.627728 0.0333933 -0.344444 -0.6477 -0.67959 0.543485 0.686982 -0.482368 0.392287 -0.894434 -0.214707 -0.693501 0.520267 -0.498376 -0.923075 -0.34575 0.168492 0.490726 -0.866034 0.0957764 0.205582 -0.106312 0.972848 -0.789805 -0.571093 0.223743 0.222578 0.941453 -0.253231 0.653552 -0.713981 0.251198 -0.96465 -0.0960847 0.245392 0.957833 -0.287243 -0.00693587 -0.180277 0.570857 -0.801014 0.499506 -0.537523 -0.679384 -0.803711 0.415836 0.425593 0.773879 0.0274334 0.632739 -0.347956 0.00447184 -0.9375 0.190297 -0.559787 -0.80649 0.959505 -0.206077 0.19205 -0.253044 -0.709138 0.658097 0.270827 -0.708088 0.652123 -0.536423 0.649654 0.538702 -0.795871 -0.281454 0.536072 0.571854 0.667165 0.477361 -0.245324 -0.332566 0.910613 0.418416 0.857748 -0.298659 -0.242262 -0.937596 -0.249445 0.509289 -0.0540941 -0.858894 0.898674 -0.16114 0.407944 0.478381 0.177649 -0.859996 -0.314831 0.474211 0.822196 -0.332645 0.683639 -0.649604 -0.78897 -0.591205 -0.167339 -0.359652 0.194108 0.912673 0.588695 -0.492363 -0.641106 0.240918 0.970507 0.00863642 -0.968639 0.230761 0.0921314 0.753268 0.599365 0.270829 0.113854 -0.843499 -0.524925 -0.717174 -0.22706 0.658866 0.155719 0.6313 -0.759744 0.275566 -0.936455 -0.21706 -0.324631 -0.463877 -0.824277 0.748672 0.332741 0.573389 0.426024 -0.86528 -0.264185 0.80919 0.0898911 0.58063 -0.208375 0.970072 -0.124659 -0.770672 0.245609 -0.587997 0.168898 -0.471866 -0.865342 0.788938 0.430957 0.438011 -0.911668 -0.368817 0.181204 0.12487 0.569484 -0.812462 -0.0802225 -0.736749 -0.671391 0.0316484 0.520282 0.853408 0.997433 0.0697063 -0.0163603 -0.0454695 0.919271 -0.39099 0.546736 -0.428991 0.719059 0.403881 0.826875 0.391355 -0.951309 0.0270973 0.307045 0.978049 0.186899 -0.0921308 0.518646 -0.495917 -0.696472 0.851002 -0.16583 -0.498293 0.102806 -0.989467 0.101916 -0.00744488 -0.114395 -0.993407 0.403364 -0.511787 -0.758533 0.781114 0.216192 0.585767 0.409765 -0.768876 -0.490838 -0.173378 0.0628274 0.982849 0.845417 0.519101 0.125714 0.00742373 -0.846373 -0.532539 0.0856077 0.948609 0.304651 -0.819239 0.556243 0.13943 -0.945379 -0.0161572 -0.325572 -0.20029 0.0120903 0.979662 0.175985 -0.85556 0.486874 -0.614013 -0.431965 0.660601 0.111815 0.21158 0.970944 -0.31472 0.949124 -0.0107529 -0.497876 -0.796391 0.343337 -0.14338 0.751559 0.643896 0.581682 0.352323 0.733154 -0.967119 -0.215712 0.13472 -0.359891 0.876955 -0.318477 0.570384 0.0856801 -0.816897 0.828285 -0.156082 0.538128 -0.396861 -0.813778 0.424579 0.298528 0.338311 -0.892427 0.847427 0.389634 -0.360629 0.625171 -0.611574 0.484911 -0.642238 0.70416 0.302804 0.545065 -0.695347 -0.468398 -0.464967 0.712086 -0.52606 0.698318 -0.675365 0.237137 0.273281 -0.133015 -0.952693 -0.797532 -0.564618 0.212484 0.871431 -0.422477 0.24924 0.230293 -0.445465 -0.865174 0.0904822 -0.859842 0.502479 -0.112215 0.405125 -0.907349 0.565151 0.581621 0.585083 0.134038 -0.0650676 0.988838 -0.815613 -0.576867 -0.0447217 -0.573643 0.311321 -0.757636 -0.967778 -0.0401732 0.248578 -0.320788 -0.118625 -0.939693 0.972238 0.124283 0.198259 0.108707 -0.099733 0.989058 -0.457772 -0.528668 0.714811 0.996747 0.0805804 -0.001493 0.721527 0.0869468 -0.686905 -0.195095 -0.806919 0.557512 0.175736 -0.133446 -0.975351 -0.957411 -0.0335222 -0.286775 0.176648 -0.384671 0.905993 0.8446 -0.446444 0.29553 -0.060087 -0.674979 -0.735386 -0.00490502 0.853532 0.521017 0.474319 0.11185 0.873219 0.581592 0.527378 0.619373 -0.994837 0.0265911 0.0979417 -0.0609297 -0.311701 0.948225 0.759534 0.642878 0.0990703 0.106398 0.929487 -0.353176 -0.909703 0.13242 0.393581 0.424285 -0.594975 0.682632 0.645534 0.380034 0.662466 0.564342 0.807978 -0.169379 0.499578 -0.754356 -0.425874 0.515172 -0.422871 0.745505 -0.858976 -0.359625 -0.364459 -0.280974 -0.787445 0.54862 0.865475 -0.397986 0.304236 0.815548 0.578373 -0.0191451 -0.189975 -0.0304048 0.981318 -0.657531 0.732533 0.176206 -0.846498 0.0337764 -0.531319 -0.771749 -0.189902 0.606911 -0.449766 -0.73556 -0.506618 -0.479929 -0.692862 -0.538154 0.513032 -0.742531 -0.430635 -0.771017 0.236773 0.591162 0.992962 -0.0496692 0.107519 -0.00707952 0.858245 0.513192 -0.809041 -0.577626 -0.10863 -0.85658 0.500551 0.125373 -0.849501 -0.357693 -0.387819 -0.264731 -0.960232 0.0887195 0.797682 -0.274197 -0.53714 0.679815 -0.729652 -0.0738924 -0.077709 -0.276659 -0.957821 0.157047 -0.963848 0.215249 0.0369483 -0.0279375 -0.998927 -0.979184 -0.202622 0.0119288 0.546474 -0.788335 0.282655 -0.129296 0.0613281 0.989708 0.789489 0.602961 0.114655 -0.337206 0.743607 -0.577356 -0.527374 -0.474598 -0.704722 0.286034 0.931422 -0.225029 0.341249 0.903488 0.259343 0.374973 -0.763458 0.525859 -0.491118 0.85948 0.141767 -0.401329 0.344395 -0.848721 0.433572 -0.88816 -0.152275 -0.42119 -0.798771 0.429609 0.550605 0.490914 -0.675158 -0.348118 0.111981 0.930738 -0.548208 -0.100914 0.830232 0.663751 -0.545563 0.51166 0.486364 0.0726544 0.87073 -0.706279 -0.464195 -0.534502 0.743972 -0.169187 -0.646438 0.363652 0.168234 0.916217 -0.188 -0.441629 -0.87728 0.404668 -0.636171 -0.65691 -0.36847 -0.836217 0.406167 0.544473 -0.704175 0.455727 -0.681219 0.702711 -0.205275 -0.511389 -0.452548 0.730535 0.39644 -0.908399 0.132838 0.645014 0.690772 0.32679 -0.141433 0.176505 0.974086 0.690436 -0.401589 0.601685 0.798433 -0.344157 0.494024 -0.431922 -0.0376227 0.901126 0.918183 0.152472 -0.365638 0.11975 0.496629 -0.859663 0.151191 0.971178 0.184268 -0.226398 -0.0850438 0.970315 -0.824335 0.465622 -0.321974 -0.170432 0.98403 0.0513563 -0.779738 -0.580775 -0.233898 -0.756911 0.175643 0.629472 -0.14764 -0.95503 0.257139 0.187586 -0.643958 0.741707 0.0741925 0.32934 0.941292 -0.816811 -0.12264 -0.563719 -0.113394 0.973297 0.199586 0.338958 -0.343019 0.876039 0.190039 0.617132 -0.763566 0.630518 0.772728 -0.0730633 -0.551507 0.827946 -0.101709 -0.226096 0.551903 0.802673 0.325411 -0.276043 0.904383 0.295569 0.861777 0.412286 -0.0608777 -0.956093 -0.286671 -0.865435 0.42685 0.262338 0.747615 0.658717 -0.0846394 0.992925 -0.116664 0.0221075 -0.725787 -0.403917 -0.556852 -0.872715 0.122187 0.472693 0.460561 -0.317418 -0.828933 -0.874682 -0.302602 0.378634 0.906676 0.17403 -0.384256 0.777458 -0.479101 0.407458 -0.311859 -0.675117 0.668552 0.794919 -0.0187369 -0.606426 0.89541 0.166959 0.412754 -0.302026 -0.472698 -0.827851 -0.741644 0.163765 -0.650496 0.429025 0.884357 0.183982 0.682017 -0.516807 0.517458 0.302721 -0.952496 0.0333231 0.943191 0.167971 -0.286664 -0.137553 0.89512 0.424075 -0.00514693 -0.321688 -0.946832 -0.455012 0.433657 -0.777757 -0.792653 -0.152356 -0.590329 0.69174 0.532401 -0.487899 0.00127972 -0.786124 -0.618068 -0.188567 0.591655 -0.783829 0.27856 -0.754366 0.59442 -0.937304 -0.297314 -0.18184 0.795981 0.236833 0.557068 0.659233 0.618792 -0.427211 -0.468734 0.209588 -0.858115 0.183605 0.935964 -0.300435 0.895031 0.237445 -0.377544 0.711426 -0.698518 -0.0771086 0.849182 0.152942 0.505469 -0.45145 -0.722255 0.523967 -0.742822 0.613959 -0.266963 0.254088 0.597836 -0.760283 0.9479 -0.0424889 -0.315721 -0.657217 -0.723187 -0.212286 -0.32852 -0.793531 -0.512233 -0.100799 0.714419 -0.69242 -0.433101 -0.876684 0.209403 -0.991042 -0.124369 0.0486597 -0.757419 0.652342 -0.0276843 -0.468964 -0.2461 -0.848238 -0.0551492 -0.90156 0.429125 -0.423419 -0.212879 0.880567 0.310145 -0.946594 -0.0881464 0.614922 0.160269 -0.77213 -0.0445805 -0.590684 -0.805671 -0.659503 -0.750954 -0.0335419 -0.617531 0.785862 0.032805 -0.646423 -0.402418 0.648226 0.000236761 0.976817 0.214075 0.54256 0.342198 0.767157 0.295879 -0.62583 0.721659 -0.246681 -0.968028 -0.045497 0.188154 -0.979804 -0.0676859 0.933773 0.340704 -0.109494 0.969398 -0.183083 -0.163546 0.286815 0.954887 -0.0769876 0.378684 0.126757 0.916805 0.557172 0.00724915 -0.830365 0.817602 -0.0375379 0.574559 -0.156596 0.0736512 -0.984913 -0.340902 0.330929 0.879927 0.607161 0.790321 0.0821417 -0.35754 -0.504254 0.786062 -0.89076 0.453391 0.0313471 0.98471 -0.128161 -0.117984 0.0174541 0.517298 0.855627 0.193384 0.981041 -0.0126995 -0.4629 -0.810833 -0.358153 0.17593 0.463744 -0.868326 -0.22856 -0.150655 0.961802 -0.0353045 -0.147789 -0.988389 -0.913343 -0.269657 -0.305105 0.128522 0.226784 -0.965428 -0.378868 0.922704 -0.0712535 -0.149555 0.543634 0.825891 0.929853 -0.355934 -0.0931859 0.167576 -0.386523 0.906928 -0.136112 0.646666 -0.750531 -0.826067 -0.425175 -0.369918 0.946563 0.130403 -0.294981 -0.0322601 0.00307292 0.999475 -0.235985 0.857063 0.457989 0.0847453 -0.161732 0.983189 0.0886854 -0.722963 0.685171 0.706481 -0.0179874 -0.707504 -0.0876274 0.6335 -0.768765 -0.577365 -0.586314 -0.56823 0.84969 0.167461 0.499983 0.505582 -0.215102 -0.835534 -0.531818 -0.208539 0.820781 -0.0197526 -0.0899347 0.995752 0.472185 -0.184819 -0.861907 0.310548 -0.94492 -0.103372 0.915415 0.195458 -0.351868 0.484138 0.646997 0.589072 0.814995 -0.193843 -0.546085 0.856178 0.479725 0.191893 0.041184 0.673567 0.737977 0.751465 -0.532732 -0.389225 -0.964992 -0.254307 0.0641755 0.0486833 -0.997305 0.0548915 -0.00500932 0.229067 -0.973398 -0.93125 0.314346 -0.184284 -0.709062 -0.589981 -0.386204 0.280379 0.334472 0.899731 -0.009646 -0.992134 0.124805 0.864691 0.502081 -0.014966 -0.417449 0.869099 -0.265335 0.870149 0.487007 0.0752631 0.332476 -0.767086 -0.548669 0.665125 0.711387 -0.227018 0.769832 -0.0667336 0.634748 0.829158 0.0612023 0.555655 -0.321427 -0.866223 0.382547 -0.247863 -0.333382 -0.909627 -0.605096 0.470262 0.642427 0.367394 -0.248802 0.896169 0.473696 -0.582515 0.660521 -0.681433 0.710567 0.175338 0.439013 0.457386 0.773347 -0.369285 -0.596669 0.712471 -0.852947 0.236277 -0.465462 -0.679632 0.345103 0.647306 0.727891 0.342303 -0.59414 -0.846026 0.522483 0.106076 -0.690925 0.468908 -0.550226 0.723468 0.685773 -0.0794387 -0.835071 -0.298788 -0.461933 0.322774 0.58437 -0.744532 -0.158158 0.807486 -0.568289 -0.164458 -0.799246 -0.578065 -0.442393 -0.342734 0.828747 -0.151503 -0.954221 -0.257895 0.376609 -0.352217 -0.856801 0.452684 -0.423344 0.784766 0.528113 0.602003 -0.598907 0.748719 0.271644 -0.604672 0.523103 0.753922 0.397448 0.832869 -0.545274 0.0948935 -0.244371 0.012021 -0.969607 -0.541773 -0.697212 -0.469443 0.988499 -0.136724 -0.0646193 -0.67123 0.275246 0.688251 -0.961439 0.106235 -0.25367 -0.290209 -0.169011 -0.94192 -0.0712961 -0.99741 -0.00946737 -0.621352 -0.651832 0.434783 0.636519 0.224841 0.73776 0.985751 -0.164636 -0.034491 -0.351123 0.180452 0.918776 -0.0249349 0.284416 -0.958377 -0.176394 0.931683 -0.317573 -0.419053 0.152218 -0.895111 -0.242659 -0.779466 -0.577538 -0.868422 -0.423271 0.258235 -0.987298 -0.0482888 -0.151362 -0.990511 -0.133232 0.0337309 -0.168116 0.137865 -0.976079 -0.202999 -0.325241 0.923585 0.695182 -0.718794 -0.00762047 0.161322 0.957199 -0.240302 0.99621 -0.0484703 -0.072226 -0.303847 0.842113 0.445558 -0.211131 0.703451 0.678661 0.891425 0.452685 -0.0209195 -0.994331 0.106257 0.0039278 -0.186027 -0.390996 0.901397 -0.041503 0.56374 -0.824909 -0.869612 -0.389404 -0.303545 0.640207 0.530997 -0.555137 -0.933345 0.0530223 0.355043 -0.758181 0.585708 -0.286544 -0.379353 0.153221 0.912477 0.371741 -0.547803 -0.749481 0.653446 -0.735772 0.177898 0.968048 -0.23176 -0.0957655 -0.11077 -0.896185 -0.42963 0.139465 0.0160047 -0.990098 0.343108 0.0530749 -0.937795 0.188477 0.0712884 0.979487 -0.952192 0.0748599 0.296187 0.169651 0.821574 0.544274 0.0478557 0.857291 -0.512604 0.911681 0.384752 0.144233 -0.514119 0.671092 0.534151 0.269023 -0.113203 -0.956458 -0.168435 0.411162 -0.895866 -0.415434 0.509702 0.753405 -0.81294 0.536566 -0.226329 0.930645 0.275683 -0.240622 -0.206179 -0.78595 -0.582901 0.788883 -0.0323165 -0.613693 0.882211 -0.329198 0.336649 -0.761663 0.572901 -0.302744 -0.151619 -0.970342 -0.188279 0.493803 -0.634376 0.594749 0.0933279 -0.296882 0.950343 0.0403381 -0.998376 0.0402296 0.510014 -0.41944 0.75097 -0.923485 -0.349115 0.159042 0.563522 0.107355 -0.819096 -0.160021 0.85261 0.497443 0.158599 -0.480298 -0.862647 0.27903 -0.882195 0.379307 -0.932912 0.138989 -0.332201 0.140306 0.840449 -0.523411 0.899843 0.364183 -0.240111 -0.672594 -0.700218 -0.2394 -0.91993 -0.382752 -0.0850323 -0.0766029 -0.550325 -0.831429 -0.987835 -0.154779 -0.0149944 -0.859873 -0.421898 0.287439 -0.77004 -0.311613 0.556719 -0.537461 0.840724 -0.0657225 0.3232 0.423621 -0.846219 0.502204 -0.249932 -0.827844 0.865903 -0.290418 0.407271 0.303438 -0.917653 -0.25659 -0.666009 -0.107453 0.738164 -0.638422 0.75371 0.156011 0.506104 -0.393552 0.767447 -0.156214 0.8103 0.56481 -0.996452 0.0818844 -0.0194346 0.996759 -0.0538575 0.0597558 -0.174207 0.196399 0.964924 -0.973089 0.223937 0.0543199 -0.226433 0.127158 0.965691 0.509504 0.337679 0.791441 -0.429637 -0.883114 0.188474 0.640825 -0.689205 -0.338142 -0.1679 0.404858 0.898832 -0.561597 -0.797433 -0.2207 0.133185 -0.990323 -0.0390029 -0.642871 0.171524 -0.746523 0.95288 0.17361 -0.248756 0.846704 -0.0395732 0.530591 -0.159376 0.829831 0.53477 -0.27552 -0.845997 -0.456485 0.405055 -0.911477 -0.0717 -0.124647 -0.49173 0.86178 0.435083 0.882754 -0.177338 -0.0769585 -0.380079 -0.921747 0.545476 0.508176 0.666494 -0.720815 0.684918 -0.106363 0.813826 0.532014 -0.23377 0.644173 -0.672048 0.365229 -0.844316 -0.442816 0.301735 -0.512438 0.710018 -0.482993 -0.351132 0.28663 0.891375 0.571994 0.816485 0.0785788 0.744088 -0.569231 -0.349726 0.667371 0.229073 0.708619 -0.591518 -0.252821 -0.765629 0.461321 -0.712742 0.528377 -0.196539 0.660403 0.724734 -0.80879 0.18898 0.556908 0.348235 0.660937 0.664751 0.230041 -0.473863 0.85002 -0.915986 -0.355506 0.18597 0.994187 -0.0280721 0.103942 0.828841 -0.356195 0.431448 -0.0738179 -0.829604 0.553451 -0.549407 0.642956 -0.533629 0.500653 -0.668161 0.55037 -0.851678 -0.493265 -0.177014 0.825474 0.501707 -0.258617 -0.583647 0.342676 0.736159 0.329558 -0.921316 0.206323 -0.136403 0.0497495 -0.989403 -0.737333 0.663339 -0.127755 0.441931 -0.50751 0.739683 -0.302574 0.801434 0.515899 0.378828 -0.538608 -0.75259 0.690185 -0.375693 0.618466 -0.792074 -0.493495 0.35928 0.581135 -0.611587 0.536883 0.689819 -0.500698 -0.522926 0.634112 0.713245 -0.298636 0.72154 -0.639133 0.266252 0.528132 0.488256 -0.694754 -0.874088 -0.364147 0.321507 -0.672603 0.568614 -0.473586 0.514972 0.0155006 0.857067 0.221075 -0.856696 0.466045 -0.293897 -0.872196 -0.391022 -0.602012 -0.469102 -0.646161 0.0781465 0.989439 -0.122078 -0.507636 0.150734 -0.848284 0.474237 -0.737571 0.480715 0.969867 -0.172587 0.171964 0.680104 -0.11078 -0.724697 -0.715198 0.61823 0.326013 0.434107 -0.0211445 0.900613 0.9798 -0.183912 0.0785388 -0.384982 0.812064 -0.438568 -0.872502 -0.424527 0.241903 0.877059 0.305973 0.370335 -0.636258 0.111451 -0.763383 0.29843 -0.183685 -0.936589 0.355486 -0.508591 0.784197 -0.129697 -0.469901 0.873139 -0.831391 -0.555634 -0.0078048 0.582858 0.733933 0.348739 0.737913 0.467035 -0.487199 -0.0738409 0.509436 0.857335 -0.628742 0.760484 0.162318 0.119646 -0.933694 -0.33749 -0.638806 0.0318395 -0.768709 -0.897442 -0.271273 -0.347863 0.400907 0.702511 0.588006 -0.818618 0.567929 -0.0855612 -0.789594 0.0259327 0.613082 0.404619 0.464106 -0.787965 -0.588281 0.723933 -0.360343 -0.883823 -0.391984 0.255352 0.598585 0.602287 0.528153 0.840713 0.479586 0.251393 -0.565079 0.822257 -0.0676717 -0.104187 0.981199 0.162458 -0.61728 0.538928 -0.573168 0.339806 0.933575 0.113888 -0.59091 0.760286 0.269797 0.894454 0.0819988 -0.439576 -0.781866 -0.417429 -0.463075 -0.236057 0.717041 0.655842 0.478111 0.528622 0.701405 -0.470012 0.792039 -0.389567 -0.275055 -0.245906 -0.929449 -0.260528 -0.950785 -0.167731 0.168655 0.723839 -0.669038 -0.587785 0.406379 -0.699546 -0.822492 -0.554267 0.127651 0.657991 0.0778841 -0.748987 -0.813376 0.529305 0.241362 -0.448742 -0.146905 0.881504 0.364634 -0.676209 0.640143 0.56882 -0.502002 0.651489 0.231679 0.931899 0.279088 -0.