# vtk DataFile Version 4.0
Generated by libgran
ASCII
DATASET POLYDATA
POINTS 1686 FLOAT
-32.6505 2.27097 6.17116 -31.1962 1.55422 7.21609 -33.5045 2.35692 4.60657 -32.4155 3.33154 5.63885 -33.0947 -1.11504 7.33793 -34.1438 2.91071 3.62115 -30.4128 0.413055 11.8741 -29.8702 -1.21512 12.2882 -31.1661 0.98596 10.94 -31.1376 -0.0653784 9.49231 -30.8971 1.65292 9.55952 -30.416 1.89962 8.36521 -28.956 -2.76868 14.724 -28.2787 -2.22374 13.7178 -28.57 -1.11609 13.7719 -28.2854 0.566502 13.3696 -27.6814 0.941045 14.0731 -27.8769 1.55132 12.6996 -30.3157 -3.95064 12.6825 -31.7714 -5.63442 13.9017 -31.1054 -4.57898 13.4428 -31.2186 -5.10226 15.1077 -32.1208 -6.39378 12.8614 -30.5542 -5.11382 16.1211 -31.5431 -4.17856 16.6538 -32.1954 -4.03348 17.6581 -31.167 -3.39242 18.1882 -30.6207 -4.65021 20.9764 -32.1309 -4.55216 21.2898 -31.1479 -4.01777 19.8135 -29.9803 -5.61532 21.6294 -29.9318 -7.40586 21.3628 -32.31 -4.47254 22.9622 -30.0508 -3.92447 18.69 -28.4042 -8.13921 19.3961 -29.1169 -9.37685 19.4019 -27.1209 -8.43282 19.2094 -26.0275 -8.44223 19.0247 -25.5678 -7.00096 20.0183 -26.1515 -6.26579 21.4888 -25.4255 -5.53634 19.8934 -28.2317 -10.2843 20.4834 -20.1117 -13.2046 23.0197 -21.0162 -12.8138 22.1268 -22.3999 -13.5447 22.2955 -19.455 -12.134 24.535 -20.7638 -11.7927 25.0566 -23.9366 -14.1984 22.6566 -25.5971 -12.096 19.6515 -24.6653 -11.9182 18.6161 -25.255 -13.1469 20.3909 -26.6666 -12.5543 20.7731 -24.5794 -14.0267 21.5619 -27.3346 -11.2694 21.3401 -24.1526 -13.5018 17.8004 -24.5571 -14.9033 16.932 -23.9754 -17.0832 17.8443 -23.9392 -17.2482 16.5251 -24.8827 -16.1735 16.6657 -22.379 -16.6934 18.3806 -22.2127 -17.3389 15.7231 -20.754 -16.8489 18.5152 -20.8948 -17.7936 19.1245 -22.1004 -16.6785 11.58 -23.2367 -16.8633 11.637 -22.9802 -15.225 11.9074 -20.8203 -16.9951 11.7503 -21.2513 -18.0605 10.558 -20.2102 -16.3904 13.4051 -20.7392 -16.5966 14.9307 -36.9735 16.7775 3.75606 -37.6724 16.324 1.9551 -37.6183 15.3497 1.73645 -35.7503 17.3127 4.62888 -34.9608 17.1698 5.37738 -34.0607 17.5397 5.14717 -34.1747 16.9738 5.96372 -40.8491 15.6501 2.20471 -41.8646 16.3633 1.72904 -40.0375 17.0437 1.58406 -39.9543 15.2849 2.75401 -40.96 13.8639 2.36148 -41.6305 12.7946 2.84337 -42.2354 11.6573 3.59121 -46.5685 12.1454 3.88034 -46.8994 11.208 3.25606 -47.4622 13.4354 3.23573 -45.7896 13.6801 4.89562 -43.1734 11.1441 3.64507 -42.3836 10.1495 2.65068 -42.9745 10.4397 1.49941 -42.7772 9.51606 0.855621 -42.389 8.7058 2.15791 -43.1066 11.9523 0.609565 -44.4296 10.9069 1.25262 -43.4428 12.3737 -0.616397 -42.5376 7.27863 1.68018 -42.559 7.19716 3.29854 -45.0147 9.23746 -5.14402 -44.3517 9.08744 -6.28675 -45.2287 7.55643 -5.96466 -45.8993 10.8481 -6.56137 -46.6918 10.2786 -6.99859 -46.6979 10.9249 -5.21388 -47.9271 9.87009 -7.49202 -47.4904 10.3554 -5.65111 -46.0675 5.98584 -5.65943 -45.989 11.1233 -3.17194 -46.876 11.1434 -4.17658 -45.8873 11.0186 -1.9535 -46.0391 10.7542 -0.871152 -46.6049 10.3364 0.00109655 -45.6275 10.2067 0.407406 -47.7715 11.6208 0.0731309 -45.7628 11.4281 1.63302 -44.066 5.80766 -8.57568 -43.0857 6.13914 -9.9371 -43.268 4.78893 -8.51851 -44.3358 6.99674 -8.04518 -44.8216 8.22603 -8.28409 -46.4126 8.03036 -7.89443 -43.5266 3.16884 -8.09724 -47.5527 7.5519 -8.24325 -45.4262 2.5481 -4.58945 -44.9562 3.81761 -4.59902 -46.1578 4.35008 -4.99285 -43.9197 5.11695 -4.70986 -25.1277 14.2228 19.9061 -25.7093 14.9389 20.8637 -24.3842 15.5902 20.2427 -26.3509 13.1885 18.9504 -27.9869 12.9875 20.5367 -28.4045 10.634 18.2977 -28.9846 12.3584 17.8625 -28.918 9.52051 17.9272 -28.1735 8.75739 18.1261 -28.3598 12.5906 17.1169 -30.4158 8.76923 18.2975 -29.7913 9.73899 16.765 -30.5513 8.05627 19.8206 -25.8881 5.65623 12.3756 -25.6335 4.57603 12.1282 -26.2751 6.7133 13.0834 -27.7764 5.95773 12.8377 -27.0342 3.68163 12.8013 -26.7486 3.45532 11.3439 -27.3807 2.94622 14.1427 -26.3571 2.70811 10.1859 -25.9987 2.90687 9.19308 -28.8958 9.72041 15.5363 -30.1577 9.66714 15.1206 -27.7958 10.1308 14.78 -30.2054 8.37457 13.8929 -31.3859 9.71929 14.1358 -30.6912 7.1448 13.6216 -29.2888 6.76224 13.2196 -33.698 7.43708 5.17795 -34.8768 6.97009 4.7774 -33.0538 8.30679 5.65465 -32.5778 6.68391 6.22055 -36.449 6.48228 5.79394 -34.3487 4.91221 6.56546 -37.64 7.11278 5.62374 -37.7767 7.19157 4.1172 -40.9352 6.11404 4.97203 -39.4193 5.55678 4.70006 -42.1642 6.60344 4.84968 -42.8747 6.07887 3.23882 -38.5157 6.9492 3.42727 -38.6325 4.78563 5.79027 -32.0158 7.04612 11.4464 -31.5924 9.5479 10.9347 -32.7224 9.55689 12.2721 -32.7951 9.69087 13.3688 -33.4911 8.56132 13.6763 -31.8633 11.2146 13.7536 -33.7708 7.13339 14.0898 -34.3318 4.30833 9.18199 -33.6912 4.26803 10.3465 -33.7065 4.44387 7.30157 -32.9074 4.61104 11.451 -25.4413 23.185 29.4442 -25.8976 21.9179 29.9466 -25.5407 22.7483 31.0192 -25.1211 23.3382 28.1628 -25.5317 24.8142 28.7422 -26.2876 26.0021 28.7596 -22.6388 23.3867 29.5117 -22.4358 23.6498 31.8335 -23.3398 24.2868 32.9511 -22.0955 23.4015 30.5723 -21.6076 23.074 29.63 -23.3999 25.236 30.0125 -23.3749 24.4329 34.1792 -25.3726 27.4222 34.208 -25.0515 28.4264 35.0211 -26.0784 29.2362 34.2482 -25.6586 26.7608 33.3655 -24.6844 26.067 33.1555 -23.5071 29.0514 36.0637 -25.3744 25.1887 32.4634 -20.8086 26.0063 36.8289 -20.8724 24.7634 37.2972 -20.718 27.08 36.5989 -19.7643 27.8894 37.3357 -20.7813 28.5884 36.6823 -18.2782 27.7612 38.2202 -18.4053 28.8908 37.5777 -21.7764 29.455 36.2885 -19.8228 29.5649 36.0083 -27.7547 23.651 34.1146 -28.2416 25.8962 34.4617 -30.3085 24.7955 36.4938 -30.1621 23.6522 35.6608 -29.7731 22.9724 33.9274 -26.4442 23.4033 34.0785 -31.3741 20.5162 32.1604 -31.9685 21.3516 33.6275 -30.1205 20.4106 31.7263 -29.2576 20.1745 31.2795 -32.1165 22.4195 34.8628 -32.9642 21.8945 34.7859 -34.7965 22.1696 34.7018 -35.6117 21.9475 33.4585 -35.1567 21.103 32.9925 -36.7527 23.2291 32.6798 -37.1368 23.0493 34.348 -37.6853 23.6949 33.3621 -36.1061 21.1702 34.8742 -37.1621 24.0876 35.9157 -37.4967 25.0502 34.0059 -41.0307 24.4808 37.4609 -40.5539 25.599 36.9219 -39.5854 24.8696 36.4025 -38.2048 24.91 36.0403 -41.0964 25.4097 34.3975 -37.1218 25.1727 35.6082 -33.9906 7.0268 23.1544 -33.8516 5.7977 23.641 -35.3495 6.76727 24.0733 -32.7508 7.31559 22.1059 -34.0034 8.39392 22.628 -31.3118 6.45175 21.2926 -30.4228 6.0578 20.2138 -30.939 5.34483 19.4826 -29.421 5.97769 19.1632 -31.441 4.34221 18.7679 -31.0307 3.67336 19.9704 -27.4913 4.93942 17.9457 -27.3414 6.03554 17.7033 -38.8121 7.12589 23.7742 -39.0803 6.11649 24.5971 -40.5428 5.68654 24.031 -39.1745 8.40902 24.4521 -40.5352 8.07878 24.0018 -37.3202 5.46034 21.1902 -37.5212 6.77709 22.2875 -36.5166 5.0039 21.8289 -35.7322 4.56275 22.265 -34.3258 5.36873 21.3556 -34.6825 3.96254 22.3963 -29.5872 15.6013 23.6084 -30.5788 15.4349 24.4785 -29.206 15.2712 25.4382 -28.5828 15.3897 22.7218 -29.5479 14.9072 21.8448 -31.6268 16.0822 24.8473 -31.1785 17.1567 26.1666 -30.0947 17.993 27.5368 -32.0919 9.80286 21.1779 -30.9943 9.72145 21.8837 -30.6105 10.917 21.03 -33.2217 10.4983 21.2695 -33.8583 9.30852 21.9055 -29.424 11.2956 21.711 -29.4997 12.2927 21.7186 -29.1043 19.4851 27.8394 -28.9806 17.9177 27.6418 -29.7814 19.6181 30.0602 -31.2301 19.4531 29.061 -28.4527 16.4632 27.8558 -27.5204 15.5278 28.7102 -31.1155 19.6259 26.6825 -31.9581 18.9674 27.7956 -31.1182 20.9553 26.712 -32.7024 21.5263 26.3382 -34.2993 21.2307 26.4455 -34.2683 22.4301 24.5916 -6.52259 25.0626 42.417 -5.58318 24.9136 42.7258 -7.82209 24.7887 42.3075 -6.07258 24.1863 42.2446 -8.58521 26.185 43.009 -9.49474 24.7604 42.5243 -9.40454 25.861 42.536 -9.35756 26.8039 42.8658 -5.56183 23.1598 42.7682 -4.31229 23.5561 42.246 -5.43625 21.4684 43.1572 -10.3062 23.7887 41.4993 -7.23327 20.0859 44.4342 -6.98563 20.8422 43.1184 -8.30497 19.1418 44.654 -8.96941 18.2937 44.9626 -5.18085 20.9011 44.2533 -1.67456 24.6091 43.5129 -2.55944 24.7634 42.5324 -3.02013 23.6172 42.6341 -0.241722 25.81 43.3449 -2.07843 26.2276 41.8698 -3.34194 22.3991 42.6606 -1.86695 28.0285 41.8122 1.2161 29.8465 42.3755 1.54876 28.7123 43.5175 -1.45683 29.5253 41.1574 2.56849 27.9357 43.1074 -2.65065 29.3968 42.3708 -21.2089 33.9996 42.9592 -19.9242 33.6765 42.8447 -21.4149 34.485 44.5778 -22.392 33.3574 43.3698 -18.857 33.2447 45.6338 -19.4401 33.9697 46.9883 -18.1269 32.3018 44.3761 -15.7043 30.7851 42.964 -16.5918 30.9619 43.9382 -14.9447 29.3378 43.2211 -17.6636 31.0088 44.0329 -17.7486 30.1273 45.2391 -16.8656 29.4283 44.8912 -13.8459 29.3913 44.125 -14.7541 29.1597 44.7758 -17.8125 29.7006 46.7722 -12.2552 26.0178 45.9055 -13.4907 26.5079 45.987 -11.9493 26.2388 44.9794 -11.2804 25.9988 45.6829 -13.7914 27.7215 46.7389 -14.4412 26.9594 47.6733 -14.241 29.1426 46.178 -11.0384 27.1864 44.5084 -15.7875 29.0735 45.4718 -10.3054 28.5821 42.0176 -9.83472 27.3306 41.9939 -11.1102 28.5679 43.3502 -11.1399 29.5628 43.2546 -11.8567 28.7597 41.804 -11.1318 29.1479 44.1644 -19.7546 37.0445 39.4036 -20.0771 37.3093 37.544 -19.137 38.0571 40.0057 -19.6989 39.4591 39.4422 -19.2797 39.5793 40.3421 -20.1147 40.0778 40.1089 -20.5977 40.9434 39.364 -19.7049 36.7473 36.6607 -21.0424 37.7797 36.7414 -19.27 41.0415 40.6812 -21.4497 43.8184 42.6068 -22.8599 42.6709 42.3497 -23.2558 43.4064 43.1625 -22.7518 41.4913 41.2972 -23.9863 41.3437 42.5994 -21.4208 41.5355 40.0369 -19.753 41.9072 39.9362 -24.2156 45.4142 43.7642 -23.5907 45.92 42.1409 -23.4769 45.7705 44.8108 -24.1273 44.172 44.1751 -23.6242 45.6158 40.9121 -22.9367 47.0269 41.2618 -22.3731 44.224 46.6921 -22.5466 44.2419 50.0544 -22.5846 45.2531 49.1917 -23.8962 45.6085 49.7876 -21.696 45.0367 47.9312 -20.8757 46.4282 47.1584 -25.0804 45.6499 49.5862 -16.7127 29.4535 40.5441 -15.9135 28.9175 39.6266 -16.0931 30.1835 39.0551 -15.6931 27.4357 40.0825 -17.1241 30.1603 37.9492 -14.8444 27.2858 41.4987 -13.3728 28.1124 41.6317 -18.4417 29.7755 36.8619 -18.6433 30.5867 35.4346 -17.9219 29.9117 35.5893 -17.723 30.7477 35.078 -19.0621 32.0116 36.81 -18.7347 31.7509 37.9792 -21.6995 30.6924 38.1197 -22.1178 31.5232 36.7422 -22.6296 35.3569 41.4857 -24.111 34.4546 41.6902 -21.79 34.4452 41.0041 -21.9947 33.9569 39.8372 -24.9285 32.7645 42.
[...]
POINT_DATA 1686
FIELD FieldData 1
normals 3 1686 double
-0.553676 0.466382 -0.689877 0.900695 -0.250368 0.355056 -0.300264 -0.380431 -0.874708 0.788744 0.594185 0.157569 -0.717095 -0.631958 -0.293946 -0.339094 0.934215 -0.110715 -0.66162 0.74842 0.0461211 -0.11896 -0.879758 0.460298 -0.0916248 -0.175516 -0.980204 0.120059 -0.875823 -0.467462 0.360605 0.842474 -0.400252 0.120515 -0.595771 -0.794061 -0.063485 -0.943651 0.324797 0.613798 -0.398717 -0.681379 0.322476 0.708937 -0.62723 -0.0378325 0.973655 0.224865 -0.641846 0.599112 -0.478642 0.446293 0.0111645 -0.894817 -0.99914 0.0251592 0.032972 -0.875414 -0.401952 -0.268488 -0.20946 0.653492 -0.727375 -0.32261 0.130206 0.937534 0.525937 -0.35741 -0.771782 0.98699 -0.141766 0.0758483 -0.00194559 0.7935 0.608567 -0.650335 -0.648425 0.39574 0.378004 -0.00736577 0.925775 0.886025 -0.0144605 0.463412 -0.624117 0.0835887 0.776847 0.358853 0.617979 -0.699518 -0.245589 -0.950653 0.18959 0.294069 -0.83988 -0.456207 0.445028 -0.00396687 0.895508 0.738208 -0.524685 -0.423974 0.831383 0.347314 0.433792 0.118666 -0.89033 0.439579 0.451948 -0.640925 -0.62045 0.641383 0.631513 0.435683 -0.181691 0.809761 0.557921 -0.401976 -0.0745949 0.912607 0.32402 0.654856 -0.68277 0.766514 -0.0171623 0.641998 -0.215713 0.900577 -0.377398 -0.688735 -0.509816 -0.515492 -0.694994 -0.221058 0.68419 0.886646 0.45421 -0.0869093 -0.422158 0.79549 0.434715 -0.841716 -0.432586 -0.323084 -0.532263 -0.775287 0.34004 0.399508 -0.597414 -0.695335 0.874387 -0.275549 0.3994 -0.53728 0.316991 0.781567 -0.198865 -0.604262 0.77157 -0.130654 0.967919 -0.214621 0.113188 -0.986256 -0.120364 -0.517687 -0.415224 -0.748057 0.715145 -0.0546633 0.696836 0.751346 -0.219632 -0.622287 -0.192113 0.854999 -0.481735 0.881314 0.444455 -0.160456 0.975237 0.128903 -0.179713 0.743673 -0.599918 0.295041 0.884516 0.34481 -0.314225 0.63948 -0.514066 -0.571665 -0.496772 -0.698843 -0.514623 -0.240298 0.939471 -0.244235 0.640676 0.197508 0.741973 0.209676 -0.867898 -0.45032 -0.0306693 0.407204 0.912822 -0.498252 -0.613405 0.612764 0.319614 0.112293 0.94087 -0.379243 -0.341224 -0.860082 -0.433377 0.633057 -0.641423 0.903605 0.422927 -0.0680476 -0.114053 -0.565899 0.816548 0.786017 -0.195931 0.586335 0.900069 0.369969 -0.230214 0.026952 -0.860419 0.508875 -0.988541 -0.147254 0.0332034 0.838576 0.533193 -0.11178 0.867849 0.49518 0.0404215 -0.137775 -0.925765 -0.352104 -0.532752 -0.143619 0.833996 -0.0721849 -0.993663 -0.086159 -0.550451 0.817933 0.167303 -0.881433 -0.119371 -0.456976 -0.343321 0.472157 -0.811911 -0.519316 0.849146 0.0962343 0.865748 -0.480496 -0.140016 0.0760052 0.514077 0.85437 -0.514878 0.804208 -0.296899 -0.317564 -0.119392 -0.940691 0.0706093 -0.929658 0.361595 0.382756 0.708457 -0.592948 -0.94019 -0.336944 0.0501072 -0.71893 -0.287108 -0.633015 -0.219161 -0.497511 -0.839316 -0.240583 -0.578983 0.779037 -0.196995 0.809563 0.552992 0.466058 0.659545 -0.589738 -0.410991 -0.871465 -0.267647 -0.140891 0.589368 0.795484 -0.933413 0.0198635 0.358254 -0.657697 -0.512566 0.552006 -0.301883 -0.428371 -0.851684 0.134827 0.0569388 0.989232 -0.427824 -0.699128 0.572875 0.407432 -0.751191 0.519337 -0.47956 -0.731101 -0.485297 -0.305643 0.646398 0.699108 0.153818 -0.910753 0.383236 -0.719618 0.492968 0.489012 0.257748 0.36327 0.895322 -0.447016 0.791395 -0.416978 -0.393055 0.858148 0.330288 -0.714596 0.29924 0.632304 0.265673 0.630719 -0.729117 0.083449 -0.719494 0.689467 0.444776 0.889837 -0.101805 -0.930576 0.339454 -0.137112 -0.660419 -0.535118 0.526778 -0.342072 -0.900587 -0.268196 -0.4797 0.0566513 -0.875602 -0.39399 0.865364 -0.309705 0.864053 0.404145 0.300131 -0.337578 0.936622 -0.0936998 0.172433 0.895194 -0.410968 -0.380634 -0.534622 -0.754518 -0.962197 0.181502 0.203062 0.362934 0.832818 -0.417963 -0.842512 -0.49969 -0.201206 -0.793352 -0.202744 -0.574009 0.426638 -0.898104 -0.106724 -0.153473 0.82628 -0.541948 -0.94023 -0.215402 -0.26376 -0.195666 -0.978524 -0.0648453 -0.778254 0.594039 0.203564 -0.557521 -0.535879 0.634038 0.0670108 0.433878 -0.898476 0.422045 -0.177089 0.889111 -0.906758 0.322477 0.271658 -0.652124 -0.757723 0.0242972 0.519804 0.734589 0.436099 -0.981475 -0.0209772 0.190438 -0.748616 -0.13668 0.648763 -0.463017 -0.362991 -0.808612 0.402176 -0.598729 0.692659 0.85457 -0.384216 -0.34941 -0.496145 0.582971 -0.643417 0.828423 -0.452463 -0.330139 -0.43343 -0.505724 -0.74591 0.271633 0.86287 -0.426228 0.385681 -0.786846 -0.481792 -0.794798 0.557868 -0.238914 -0.87149 -0.442925 0.210531 0.530952 -0.825486 -0.191476 0.4561 -0.0213992 0.889671 -0.722652 -0.488395 0.489126 0.188102 0.891107 -0.412972 0.664163 -0.731778 0.152933 -0.849608 0.000587573 0.527414 0.937042 -0.28507 -0.201711 -0.341388 0.629911 -0.697615 0.204678 -0.551119 -0.808935 -0.593729 0.474667 0.649752 0.922203 -0.0825992 0.377781 -0.635326 0.0147325 -0.772104 -0.0750991 -0.539305 -0.838755 0.94367 -0.308748 -0.119006 -0.135427 -0.688547 0.712434 0.440928 -0.785117 0.434941 -0.44295 0.461294 0.768767 -0.687048 -0.452302 0.568671 0.614369 0.586283 0.528037 -0.0816773 -0.543269 0.835576 0.317373 0.937426 -0.143204 -0.198048 -0.884659 -0.422085 0.330515 -0.0477309 -0.942593 0.97109 -0.0880355 0.221886 0.29478 0.183269 -0.937826 -0.187261 0.431045 0.882685 -0.311258 0.654018 -0.689478 -0.767591 -0.613027 -0.187088 -0.410645 0.217386 0.885502 0.631483 -0.50082 -0.591954 0.220826 0.975233 -0.0125305 -0.976659 0.212704 0.0298967 0.725908 0.62415 0.288954 0.157708 -0.857583 -0.48957 -0.746207 -0.220615 0.628096 0.182643 0.609303 -0.771616 0.305235 -0.936853 -0.1707 -0.272712 -0.497628 -0.823405 0.711023 0.366814 0.599912 0.465731 -0.858831 -0.213315 0.786794 0.145455 0.599832 -0.240058 0.955193 -0.173143 -0.751738 0.197505 -0.629191 0.222438 -0.496319 -0.83916 0.757673 0.479472 0.442762 -0.912408 -0.381965 0.147021 0.131794 0.355967 -0.925158 0.0680093 -0.886942 -0.456846 -0.041198 0.717662 0.695172 0.994904 0.0918014 0.041705 -0.0220711 0.790764 -0.611723 0.491211 -0.219999 0.8428 0.364083 0.909587 0.200237 -0.97301 0.0758419 0.217945 0.980619 0.185746 -0.0623215 0.565025 -0.509092 -0.649285 0.880202 -0.150075 -0.450247 0.18294 -0.971388 0.151453 -0.0365278 -0.171879 -0.984441 0.425471 -0.507966 -0.748962 0.745409 0.261448 0.613196 0.478603 -0.735982 -0.478821 -0.115724 0.0994187 0.988293 0.775023 0.63035 0.0447093 0.0878814 -0.86644 -0.491487 -0.0323285 0.968463 0.24705 -0.879977 0.44352 0.170087 -0.952369 -0.168468 -0.254189 -0.137192 0.0536298 0.989092 0.317781 -0.790815 0.523093 -0.532478 -0.450042 0.716889 0.148378 0.270218 0.951297 -0.400173 0.915787 -0.0345836 -0.357259 -0.830866 0.426647 -0.173676 0.76802 0.616427 0.588782 0.439535 0.67834 -0.933709 -0.293925 0.204438 -0.456919 0.824222 -0.33449 0.511631 0.0948298 -0.853956 0.869004 -0.0544258 0.491803 -0.637506 -0.713271 -0.291256 0.213909 0.317087 -0.923958 0.671942 0.668724 -0.31828 0.810962 -0.560382 0.168264 -0.686925 0.409195 0.600577 0.567814 -0.379935 -0.730231 -0.684784 0.698391 -0.208136 0.871172 -0.483902 -0.0830501 0.0178769 0.0899487 -0.995786 -0.534127 -0.802916 0.264639 0.983906 -0.170062 -0.0548381 0.0321407 -0.199711 -0.979328 0.442502 -0.868557 0.223161 -0.465177 0.484929 -0.740577 0.615027 0.611193 0.498182 0.393539 -0.261909 0.88121 -0.661716 -0.747485 -0.0582972 -0.800814 0.317535 -0.507807 -0.841558 -0.358624 0.403941 -0.519117 0.0283797 -0.854232 0.942616 0.331598 0.038947 0.376819 -0.301265 0.875926 -0.139074 -0.78804 0.599709 0.923515 0.346899 -0.163652 0.482858 0.459079 -0.745718 0.126174 -0.947118 0.295039 0.0238131 -0.0504123 -0.998445 -0.967765 -0.216745 -0.128266 0.404955 -0.380513 0.831397 0.980566 -0.161153 0.111889 0.015443 -0.643677 -0.765141 -0.0803003 0.864025 0.497004 0.528607 0.210464 0.822362 0.555199 0.625822 0.547814 -0.936567 -0.278128 0.213276 0.161055 -0.359537 0.919127 0.544778 0.836027 0.0653927 -0.193233 0.973582 -0.121651 -0.82988 -0.216212 0.514347 0.641728 -0.45746 0.615562 0.566016 0.539641 0.623228 0.435261 0.866253 -0.245264 0.558873 -0.701101 -0.442852 0.611664 -0.310095 0.72781 -0.837021 -0.475128 -0.271383 -0.030952 -0.753367 0.656871 0.963236 -0.182121 0.197505 0.733523 0.669142 -0.119136 -0.109015 0.0105829 0.993984 -0.736209 0.660227 0.14865 -0.84798 -0.0892253 -0.522464 -0.748876 -0.206331 0.629771 -0.386077 -0.81402 -0.433954 -0.489397 -0.727275 -0.481208 0.450007 -0.876218 -0.172441 -0.810103 0.453425 0.371671 0.939404 -0.148944 0.308766 0.0469797 0.942878 0.32981 -0.862554 -0.481695 -0.154825 -0.772346 0.618856 -0.143175 -0.819326 -0.324021 -0.472985 -0.428654 -0.877551 0.21485 0.820891 -0.481318 -0.307362 0.554238 -0.813926 0.174198 0.0510614 -0.490013 -0.870218 -0.0797654 -0.934742 0.346259 0.167867 -0.178456 -0.969523 -0.991935 -0.00934234 -0.126405 0.327492 -0.838794 0.43494 -0.298838 0.246627 0.921885 0.874311 0.449407 0.183338 -0.0105708 0.603752 -0.797102 -0.471261 -0.542468 -0.695443 0.558527 0.751442 -0.351259 0.491581 0.86038 0.134517 0.149458 -0.67563 0.721932 -0.2801 0.940555 -0.192096 -0.111077 0.17287 -0.978661 0.221592 -0.961365 0.163324 -0.690223 -0.556272 0.462768 0.798134 0.18482 -0.573431 -0.503596 0.427722 0.75063 -0.599017 0.0714081 0.797546 0.685718 -0.251662 0.682977 0.393055 0.413956 0.821065 -0.583997 -0.713602 -0.386935 0.817603 -0.348643 -0.458228 0.234502 0.376367 0.896301 -0.0875484 -0.594241 -0.799508 0.366506 -0.828634 -0.42313 -0.520978 -0.651866 0.551046 0.393119 -0.618692 0.680205 -0.550856 0.698801 -0.456327 -0.63583 -0.182699 0.749894 0.247122 -0.881669 0.401983 0.705684 0.672266 0.223758 -0.202506 0.44066 0.874534 0.571946 -0.244007 0.783159 0.668925 -0.239976 0.703527 -0.566642 0.250114 0.785086 0.974733 -0.0189845 -0.222564 0.305807 0.220992 -0.926091 0.265946 0.963416 -0.0332009 -0.383834 0.201338 0.901185 -0.715544 0.457762 -0.527683 -0.0637814 0.966555 -0.248403 -0.830974 -0.526869 -0.17858 -0.812855 0.400721 0.422717 -0.342163 -0.850742 0.398951 0.00804248 -0.414912 0.909826 -0.0215939 0.580072 0.814279 -0.738441 -0.223053 -0.636359 -0.0296363 0.994984 -0.0955463 0.344621 0.109034 0.932388 0.0221687 0.373738 -0.927269 0.273003 0.903537 -0.330288 -0.834952 0.498463 -0.233217 -0.415731 0.618633 0.666679 0.41922 0.120171 0.899896 -0.06382 0.985858 0.154954 0.35002 -0.93571 0.0439607 -0.987477 0.0966637 0.124678 0.425453 0.843593 -0.327629 0.946771 0.317484 -0.0531924 -0.463493 -0.830023 -0.310219 -0.859358 -0.0945025 0.502567 0.571633 -0.349635 -0.742288 -0.662859 -0.497171 0.559855 0.759315 0.393836 -0.51801 0.908494 -0.0220929 0.417314 0.076134 -0.382123 0.92097 0.701061 0.123719 -0.702287 0.662583 0.738378 0.125625 0.0121765 -0.860071 -0.51003 -0.734576 -0.427945 -0.526556 -0.0470214 0.983108 -0.176883 0.846754 0.148869 0.51073 0.756868 -0.563742 0.330675 0.718898 0.447383 -0.53201 -0.59276 0.80284 0.0638981 0.169646 -0.663774 -0.728439 -0.605403 -0.226107 -0.763127 -0.591447 -0.76145 -0.265299 0.733505 0.393331 -0.554311 0.0656344 -0.929395 -0.363203 -0.113913 0.336676 -0.934705 0.15478 -0.552337 0.819126 -0.917141 -0.3599 -0.171246 0.693975 0.402418 0.597042 0.777616 0.424217 -0.464063 -0.400439 -0.0248793 -0.915986 0.198877 0.836068 -0.511309 0.920247 0.160999 -0.356686 0.721369 -0.675069 0.154623 0.802733 0.316704 0.50529 -0.475344 -0.577358 0.663857 -0.729291 0.468126 -0.498991 0.31104 0.362647 -0.878488 0.979108 0.0376204 -0.199829 -0.502254 -0.864708 0.00463663 -0.139485 -0.949279 -0.281803 -0.0651863 0.460987 -0.88501 -0.315271 -0.825337 0.468426 -0.953776 -0.299723 0.0218262 -0.822045 0.461457 -0.333616 -0.234271 -0.54304 -0.806365 -0.0760961 -0.742105 0.66595 -0.52668 0.017405 0.849885 0.355312 -0.906013 0.229986 0.688163 -0.0322929 -0.724837 0.0666073 -0.804101 -0.59075 -0.621556 -0.771809 0.134086 -0.471276 0.881814 -0.0174181 -0.615567 -0.195755 0.763385 0.188317 0.980187 0.0614004 0.717358 0.243888 0.652623 0.249274 -0.636404 0.729967 -0.468084 -0.880293 0.0773448 0.134796 -0.975063 -0.176303 0.942452 0.153388 -0.29708 0.940576 -0.293516 0.170779 0.360664 0.901144 0.240543 -0.00225992 -0.0884689 0.996076 0.849815 0.127324 -0.511472 0.504864 -0.319073 0.802063 0.275206 0.249993 -0.928313 -0.652716 0.236069 0.719884 0.568424 0.627182 0.532482 -0.149893 -0.334616 0.930357 -0.932723 0.347122 0.0976487 0.96752 -6.27965e-05 -0.252793 0.0823993 0.742505 0.664753 0.0289712 0.949605 -0.312106 -0.327372 -0.944487 -0.027794 -0.0534281 0.207102 -0.976859 -0.0315815 0.112328 0.993169 -0.18182 -0.43155 -0.883576 -0.938097 -0.345378 0.0262193 -0.117891 -0.0907675 -0.98887 -0.454705 0.880305 -0.135304 0.00432582 0.681977 0.731361 0.92205 -0.341465 -0.182276 0.350662 -0.201293 0.914613 -0.351545 0.631389 -0.691205 -0.873386 -0.464435 -0.146615 0.833304 0.167294 -0.526893 0.223562 0.0134259 0.974597 -0.167873 0.84558 0.506767 0.339736 -0.146401 0.929057 0.295264 -0.703039 0.646959 0.556928 0.0530462 -0.828865 -0.383623 0.667276 -0.638417 -0.746822 -0.575068 -0.333997 0.975687 0.16752 0.141319 0.143315 -0.155791 -0.977338 -0.168924 -0.267178 0.948726 0.358268 -0.0887498 0.929391 0.342661 -0.325186 -0.881384 0.18214 -0.982745 -0.032207 0.823626 0.156415 -0.545137 0.556392 0.735342 0.38691 0.717468 -0.2659 -0.643845 0.841717 0.536551 -0.0602057 0.12425 0.802451 0.583639 0.705881 -0.57083 -0.419386 -0.908915 -0.273807 0.31449 0.12202 -0.977934 0.169578 -0.263181 0.217194 -0.93998 -0.954266 0.292392 0.0623134 -0.757213 -0.624263 -0.192155 0.395611 0.463496 0.792883 0.0751641 -0.966111 0.246942 0.821758 0.410409 0.39532 -0.290747 0.941213 -0.172 0.790965 0.369635 0.487591 0.498711 -0.649003 -0.574528 0.71247 0.673801 0.195906 0.50057 -0.275595 0.820656 0.555794 -0.173865 0.812935 -0.425996 -0.904098 -0.0336843 0.121236 -0.0428223 -0.9917 -0.794038 0.372981 0.479988 -0.00747991 -0.498001 0.867144 0.173276 -0.776234 0.606166 -0.704415 0.700734 0.11301 0.112234 0.185785 0.97616 -0.608143 -0.723607 0.326429 -0.615115 0.439511 -0.654571 -0.876224 0.223112 0.427144 0.899409 0.401277 -0.17332 -0.82223 0.564043 -0.0761171 -0.425532 0.67662 -0.600923 0.767097 0.560458 0.312167 -0.658379 -0.0590087 -0.75037 0.621826 0.632528 -0.46178 0.0744333 0.940079 -0.332733 0.0198463 -0.617279 -0.786494 -0.723751 -0.461954 0.512624 -0.100737 -0.840652 -0.532125 0.664989 -0.223346 -0.712675 0.123455 -0.645004 0.754141 0.765726 0.617305 -0.18055 0.946167 0.26344 -0.188063 0.369821 0.571453 0.732581 0.756266 -0.595109 0.271861 0.207132 0.354309 -0.9119 -0.307202 -0.550706 -0.776112 0.927408 -0.209648 0.309776 -0.935849 0.0376989 0.35038 -0.756868 0.213951 -0.617557 0.178981 0.176252 -0.967936 -0.118273 -0.961538 -0.247905 -0.775297 -0.631357 0.0174305 0.28533 0.0265765 0.958061 0.903246 -0.276295 0.328342 -0.689916 0.075116 0.719981 0.384149 0.41378 -0.825358 -0.0341123 0.974326 -0.222542 0.00236195 0.295019 -0.955488 0.0364743 -0.679308 -0.732946 -0.916487 -0.349437 -0.194795 -0.827088 0.0246892 -0.56153 -0.923921 0.000969053 -0.382583 0.253136 0.323679 -0.911676 -0.580659 -0.446364 0.680877 0.604513 -0.787983 0.116818 0.288008 0.956461 0.0472702 0.930783 -0.158885 0.329239 -0.417335 0.802666 0.426098 -0.309685 0.790299 0.528699 0.904805 0.297648 0.304522 -0.888031 0.266346 -0.37478 -0.51264 -0.270313 0.814943 0.363632 0.389012 -0.846429 -0.781779 -0.293781 -0.550013 0.887992 0.310734 -0.338991 -0.926257 0.358411 0.116575 -0.969779 -0.11746 -0.213848 -0.351953 0.576836 0.73715 0.586157 -0.645791 -0.489259 0.963248 -0.0826493 0.255583 0.939244 0.199307 -0.279458 0.229938 -0.972484 -0.0374523 0.0920319 -0.349097 -0.932556 0.185128 -0.173516 -0.967274 -0.0544903 0.0244873 0.998214 -0.924118 0.377912 0.056475 0.276996 0.73244 0.621936 0.439997 0.787825 -0.430969 0.919 0.0734538 0.387355 -0.395837 0.806929 0.438381 0.451728 -0.205429 -0.868182 0.200218 0.432153 -0.879293 -0.408435 0.625973 0.664333 -0.471935 0.796714 -0.377525 0.9991 -0.0406975 0.0119567 -0.239646 -0.417085 -0.876704 0.87972 -0.0377388 -0.473993 0.685162 -0.676253 0.270619 -0.54013 0.833585 -0.115743 -0.255409 -0.715726 -0.650002 0.178581 -0.936576 0.301552 -0.194558 -0.638515 0.744612 -0.162589 -0.885124 -0.436027 0.139549 -0.82551 0.546864 -0.968177 -0.134988 -0.210742 0.786925 0.297657 -0.540508 -0.180837 0.569649 0.801747 0.332408 -0.0549596 -0.941533 0.207345 -0.97808 -0.019191 -0.849451 0.348038 -0.396614 0.309014 0.914104 -0.262532 0.960884 0.273956 -0.0406163 -0.662882 -0.306192 -0.683253 -0.884953 -0.00685769 -0.465631 0.123827 0.0403131 -0.991485 -0.94563 0.153665 -0.286655 -0.975238 -0.145113 -0.166894 -0.931973 -0.350133 0.0939853 -0.400677 0.837158 0.372324 0.610021 0.722734 -0.324853 0.706551 0.139143 -0.693848 0.660381 -0.693521 0.287968 0.268976 -0.913037 -0.306618 -0.790922 -0.114115 0.601182 -0.573303 0.803107 0.162306 0.319883 -0.55013 0.771384 -0.292719 0.718556 0.630867 -0.903054 0.239091 -0.356832 0.893482 -0.224558 0.388926 -0.572192 0.0620402 0.81777 -0.896165 0.302302 -0.32481 -0.620786 -0.00136448 0.783979 0.198738 0.0898317 0.975927 -0.467347 -0.865156 -0.181911 0.725339 -0.673961 -0.140214 -0.566033 0.276542 0.776615 -0.357148 -0.763403 -0.538201 0.138927 -0.980522 -0.138839 -0.296931 0.274195 -0.914685 0.972959 0.0508977 0.2253 0.511746 -0.24373 0.82384 -0.255494 0.803783 0.537267 -0.166773 -0.739813 -0.651816 0.316416 -0.946548 -0.0626749 -0.538866 -0.575744 0.614933 0.588613 0.794547 0.149095 0.0453713 -0.540246 -0.840283 0.237173 0.293728 0.925998 -0.552151 0.799236 -0.237382 0.870473 0.427095 0.244676 0.37193 -0.818484 0.437895 -0.936886 -0.335069 -0.0998646 -0.215826 0.835903 -0.504663 -0.670031 0.201949 0.714335 0.540302 0.710819 0.450344 0.786068 -0.601805 -0.141169 0.347385 0.0372701 0.936981 -0.256792 -0.0618643 -0.964485 0.166079 -0.841257 0.514494 -0.430997 0.560628 0.707062 -0.946213 0.224347 0.233128 0.0878046 0.48827 0.868264 -0.189137 -0.687652 0.700972 -0.919974 -0.235114 -0.313637 0.844917 -0.212353 0.490939 0.524674 -0.492645 0.694275 -0.372431 -0.886937 0.273201 -0.201037 0.798121 -0.567968 0.245486 -0.807552 0.53628 -0.706548 -0.37344 -0.601109 0.855983 0.475143 0.203795 -0.840055 0.218143 0.496711 0.229561 -0.968497 0.0965201 0.258065 0.283869 -0.923483 -0.641844 0.736653 -0.213023 0.143633 -0.392977 0.908261 -0.511137 0.819122 0.260343 0.704227 -0.532629 -0.469436 0.429677 -0.204067 0.879622 -0.806359 -0.582811 0.10058 0.340462 -0.451148 0.824955 0.887792 -0.45017 -0.0957694 0.629378 0.762975 -0.147488 0.586267 -0.450744 0.673142 0.714505 0.559676 -0.419815 -0.841744 -0.532719 -0.0876221 -0.440418 0.413883 -0.796701 0.0151286 0.151848 0.988288 0.106348 -0.774695 0.623327 0.0912192 -0.926544 -0.36496 -0.216515 -0.615654 -0.757688 0.0581175 0.964587 -0.257282 -0.150413 -0.0336304 -0.988051 0.297147 -0.59843 0.744033 0.859829 -0.0361831 0.509298 0.893661 -0.128673 -0.429899 -0.840832 0.53647 -0.0721267 0.0276964 0.149146 0.988427 0.876407 -0.00200992 0.481567 -0.266401 0.702777 -0.659647 -0.875167 -0.483661 0.0123913 0.682823 0.44482 0.579559 -0.359745 -0.0410814 -0.932146 0.602041 -0.279611 -0.747906 0.0896987 -0.368543 0.925273 0.158785 -0.594806 0.788031 -0.574483 -0.817451 -0.0417486 0.308039 0.848166 0.43096 0.450317 0.773756 -0.445552 -0.154304 0.324447 0.933233 -0.833798 0.448535 0.321865 0.402461 -0.774058 -0.488732 -0.691908 -0.106933 -0.714023 -0.670185 -0.684258 -0.287476 0.165715 0.732997 0.659738 -0.992352 0.106296 -0.0627548 -0.69203 -0.334508 0.639686 0.142585 0.663143 -0.734786 -0.853784 0.435027 -0.286014 -0.581625 -0.772372 0.255254 0.507015 0.661907 0.5521 0.673656 0.595836 0.437226 -0.559954 0.74101 -0.370616 -0.217555 0.975685 -0.0266142 -0.416746 0.397225 -0.81764 0.228658 0.970004 0.0825041 -0.688882 0.722164 -0.062614 0.975366 0.126304 -0.180856 -0.59228 -0.51261 -0.621639 -0.46179 0.717595 0.521352 0.264332 0.700501 0.662892 -0.572117 0.61559 -0.541969 -0.0643816 -0.387609 -0.919573 0.0927186 -0.94751 -0.305988 -0.182284 0.814372 -0.550973 -0.775885 0.235423 -0.585302 -0.536477 -0.839638 0.0848563 0.486617 0.429252 -0.760885 -0.906595 0.135594 0.399625 -0.232747 -0.433895 0.870382 0.673847 -0.569489 0.470757 0.784616 -0.330959 0.524255 -0.0966423 0.902311 0.420113 -0.795074 -0.0016779 