# vtk DataFile Version 4.0
Generated by libgran
ASCII
DATASET POLYDATA
POINTS 1686 FLOAT
-31.9947 1.21871 6.7264 -30.8356 0.686284 8.17336 -32.4969 1.04893 5.02242 -31.5937 2.16569 6.08938 -32.9642 0.516441 9.2276 -32.9404 1.42411 3.86092 -31.4765 0.0758362 12.9026 -31.6029 -1.54808 13.5837 -31.7573 0.717179 11.7721 -31.5769 -0.487903 10.4617 -31.1387 1.19184 10.4249 -30.3244 1.22266 9.39788 -31.7561 -2.84419 16.3114 -30.7622 -2.71236 15.438 -30.6622 -1.57619 15.3205 -29.7863 -0.146489 14.8079 -29.147 0.157322 15.5144 -29.0771 0.576512 14.0596 -33.146 -3.62267 14.2443 -35.3915 -3.80525 15.4541 -34.2009 -3.52461 14.9328 -34.6191 -3.55539 16.6306 -36.1328 -4.28173 14.4519 -34.1349 -3.83041 17.7069 -34.2463 -2.4033 18.0027 -34.5372 -1.88598 19.0529 -33.2533 -1.89682 19.3706 -33.1633 -3.2933 22.0917 -33.9581 -2.16323 22.7842 -33.3028 -2.3217 21.0589 -33.3345 -4.57561 22.399 -34.6003 -5.74197 21.8363 -33.6372 -2.23728 24.4355 -32.5787 -2.95862 19.816 -34.0465 -6.1464 19.7743 -34.955 -7.13689 19.2913 -32.8432 -6.68587 19.6042 -31.7781 -6.98981 19.5527 -31.163 -6.10551 21.0072 -31.8387 -5.61498 22.539 -30.5687 -4.80659 21.3822 -34.446 -8.50867 20.0888 -26.5504 -11.7406 22.1899 -27.4127 -11.0805 21.4226 -28.7378 -11.8857 21.1524 -26.1649 -11.3256 24.098 -27.5576 -11.285 24.4981 -30.2316 -12.711 21.0699 -31.7805 -9.74579 18.8716 -30.6705 -9.13786 18.2631 -31.395 -10.9857 19.1582 -32.9086 -10.7112 19.5099 -30.773 -12.1901 20.0323 -33.7094 -9.84261 20.5213 -29.7137 -10.275 17.1551 -29.66 -11.3039 15.8059 -28.9018 -13.5887 16.1005 -28.4571 -13.2003 14.9089 -29.6489 -12.411 15.0544 -27.7132 -13.2119 17.2979 -26.6039 -12.7669 14.8079 -26.1735 -13.1183 17.8487 -26.1112 -14.2494 17.8668 -25.5965 -10.4072 11.645 -26.5849 -10.8214 11.2206 -26.9713 -9.53145 12.2254 -24.3502 -10.5012 12.0988 -24.1318 -10.8778 10.5011 -24.343 -10.6653 13.956 -25.1886 -11.6175 14.9699 -36.2221 14.7887 2.68616 -36.0613 14.2363 0.787083 -35.8793 13.2604 0.666248 -35.5149 15.4244 3.96685 -35.1188 15.3546 4.98778 -34.2228 15.7703 5.14408 -34.654 15.2262 5.86387 -38.9886 13.2842 -0.262444 -39.7579 13.8966 -1.15639 -38.0982 14.7361 -0.554009 -38.3812 13.0053 0.625882 -39.026 11.4976 -0.0780568 -39.6652 10.3517 0.244101 -40.3297 9.15005 0.821284 -44.4165 9.36629 -0.607053 -44.3233 8.52759 -1.42295 -44.9876 10.7015 -1.48436 -44.254 10.8194 0.755945 -41.1681 8.54134 0.552085 -39.9791 7.64268 -0.0645723 -40.0778 7.91537 -1.35865 -39.6075 7.00343 -1.86228 -39.7348 6.20234 -0.503896 -39.904 9.41044 -2.27079 -41.349 8.33804 -2.13444 -39.7848 9.81402 -3.54218 -39.6287 4.7729 -0.986104 -40.2842 4.68249 0.493187 -39.717 6.42647 -8.34996 -38.7435 6.22686 -9.23342 -39.6824 4.7037 -9.1089 -40.1335 7.95331 -10.0482 -40.7592 7.35217 -10.6733 -41.2992 8.08455 -9.00746 -41.7903 6.9029 -11.4926 -41.9249 7.48341 -9.63251 -40.5727 3.13682 -8.98359 -41.2349 8.39215 -6.85975 -41.7798 8.35088 -8.08359 -41.5102 8.3445 -5.66481 -42.0287 8.11364 -4.69409 -42.8865 7.71538 -4.09327 -42.1371 7.59345 -3.34447 -43.9722 9.01399 -4.48148 -42.7393 8.82688 -2.28224 -37.7814 2.84412 -11.1325 -36.4038 3.13093 -12.1042 -37.0608 1.82376 -10.7896 -38.2048 4.0556 -10.7843 -38.5934 5.2643 -11.2228 -40.2281 5.06758 -11.325 -37.5286 0.235866 -10.4307 -41.2114 4.55802 -11.9762 -40.3402 -0.362648 -7.9978 -39.7389 0.84577 -8.1021 -40.9058 1.4942 -8.41883 -38.5806 2.01503 -8.35877 -26.0163 12.894 19.5529 -26.4378 13.9259 20.278 -24.8619 13.8992 19.9922 -27.3183 12.2962 18.3584 -29.1793 13.0126 19.4101 -29.9277 10.6336 17.7165 -29.8137 12.1228 16.5901 -30.6822 9.60885 17.5698 -30.2911 8.8423 18.23 -29.0162 11.8844 16.0358 -32.3758 9.34248 17.6446 -31.167 9.62377 16.1821 -33.0593 9.21862 19.1821 -26.6998 4.37563 13.0862 -26.5062 3.25562 13.0549 -27.034 5.60868 13.4549 -28.5594 4.86309 13.5035 -27.9272 2.5665 13.904 -27.7171 2.10221 12.4909 -28.3147 1.95838 15.297 -27.3979 1.27008 11.3691 -27.1145 1.43803 10.3469 -30.0063 9.09307 15.3559 -31.0959 9.05995 14.5945 -28.6739 9.1126 14.9374 -30.994 7.51048 13.7176 -32.1254 8.885 13.4152 -31.4823 6.25248 13.6871 -30.0516 5.77972 13.6204 -32.9983 6.32279 5.40891 -33.9057 5.77591 4.60547 -32.6869 7.19179 6.14815 -32.1454 5.57974 6.68549 -35.6232 4.96445 4.97317 -33.6695 3.67853 6.39658 -36.7677 5.33529 4.34278 -36.3652 5.38184 2.8832 -39.3653 3.74011 2.66139 -37.7751 3.48457 2.95859 -40.5067 4.09088 2.07901 -40.5154 3.55511 0.321851 -36.7437 5.00877 1.98968 -37.2668 2.8507 4.27848 -32.3732 5.72544 11.4051 -31.6969 8.01154 10.3889 -33.0905 8.31822 11.4036 -33.3617 8.68772 12.4116 -34.147 7.65073 12.8151 -32.4541 10.2582 12.6303 -34.6133 6.36054 13.4524 -34.2508 3.13105 8.96162 -33.9123 3.09343 10.2469 -33.1979 3.27202 7.28322 -33.4087 3.48771 11.4891 -26.0837 23.4033 27.9713 -26.5829 22.1413 28.4448 -26.1377 22.9087 29.5313 -25.812 23.5917 26.6833 -26.1193 25.062 27.3366 -26.8102 26.2849 27.4369 -23.2742 23.4599 27.9183 -22.9584 23.6208 30.2367 -23.7789 24.258 31.4168 -22.6857 23.4054 28.9532 -22.2567 23.0909 27.9784 -23.916 25.3243 28.5211 -23.7535 24.3575 32.6497 -25.5835 27.4442 32.8773 -25.1772 28.3842 33.7284 -26.1623 29.2977 33.0194 -25.9406 26.8387 32.0201 -25.0216 26.0937 31.7468 -23.5703 28.8516 34.759 -25.7847 25.2789 31.0538 -21.0651 25.7019 34.4693 -21.3081 24.4014 34.6032 -20.8806 26.787 34.516 -19.8383 27.3411 35.3612 -20.8525 28.2241 34.9853 -18.3096 26.9311 36.0701 -18.412 28.1923 35.7477 -21.8192 29.2012 34.9008 -19.8837 29.3033 34.5123 -28.1643 23.8383 32.7534 -28.5139 26.0921 33.1879 -30.6736 25.076 35.209 -30.6058 23.9736 34.3132 -30.216 23.343 32.5615 -26.873 23.5189 32.6513 -32.0528 21.267 30.5556 -32.621 22.1109 32.0281 -30.8032 20.9798 30.1989 -29.9578 20.6278 29.7972 -32.6873 23.12 33.3188 -33.6025 22.7562 33.1454 -35.3483 23.3508 32.9484 -36.0842 23.353 31.6377 -35.7302 22.4776 31.142 -36.9781 24.8165 30.8704 -37.4988 24.6009 32.4968 -37.8959 25.3569 31.5168 -36.8151 22.5814 32.9504 -37.5138 25.5543 34.1176 -37.5958 26.6453 32.2497 -41.4098 26.3355 35.429 -40.7676 27.4133 34.9885 -39.857 26.5988 34.4911 -38.4589 26.4897 34.2222 -41.313 26.7119 33.2623 -37.3245 26.6406 33.8773 -37.0887 10.2446 21.5813 -37.4101 9.26596 22.4214 -38.5815 10.6588 22.1796 -35.6821 9.84238 20.82 -36.5997 11.308 20.7002 -34.5148 8.39654 20.661 -33.5605 7.52407 19.9994 -34.0849 6.84124 19.2456 -32.4143 6.90327 19.3557 -34.6638 5.84036 18.589 -34.8934 5.47 19.9571 -30.689 5.09838 19.0138 -30.1786 6.05988 18.7012 -41.5915 11.7988 20.8246 -42.3628 11.211 21.7343 -43.7237 11.0347 20.8617 -41.6264 13.2776 21.047 -42.8856 13.2022 20.2908 -40.2462 9.0682 19.2723 -40.2116 10.6659 19.9244 -39.8079 8.63563 20.2118 -39.3379 8.15574 20.9527 -37.5795 8.19588 20.352 -38.6178 7.38302 21.5558 -30.2088 16.29 22.0688 -31.3498 16.4148 22.7401 -30.2439 16.0286 23.9484 -29.205 15.6675 21.4021 -30.0998 15.4933 20.3521 -32.2949 17.2572 22.9647 -31.8221 18.2023 24.3716 -30.7718 18.8065 25.8826 -34.1689 11.5637 19.3905 -33.295 11.1852 20.2864 -32.382 12.0735 19.46 -34.9858 12.5664 19.081 -36.0797 11.8456 19.7946 -31.2157 12.047 20.2686 -30.9393 13.008 20.2636 -29.5996 20.1104 26.3567 -29.6994 18.5517 26.0897 -30.4686 20.2249 28.5138 -31.8266 20.3291 27.3871 -29.5192 17.0045 26.2072 -28.9738 15.7997 27.0588 -31.4517 20.6193 25.0481 -32.4846 20.0261 26.0298 -31.2638 21.9228 25.232 -32.7543 22.7227 24.8943 -34.3741 22.588 24.9779 -34.2831 23.9732 23.3156 -5.76316 23.9789 37.7408 -4.7699 23.9226 37.8421 -7.01716 23.533 37.8068 -5.25873 23.2281 37.3143 -7.77939 24.6451 38.9051 -8.59648 23.2092 38.3033 -8.6342 24.29 38.5266 -8.63126 25.1534 39.0311 -4.53693 22.2146 37.5159 -3.47356 22.8861 36.876 -4.13292 20.5225 37.5559 -9.50112 22.3573 37.2501 -5.28945 18.7447 38.8982 -5.4328 19.6424 37.658 -6.04956 17.539 39.1364 -6.43308 16.5342 39.4517 -3.57473 19.8787 38.4846 -0.827233 24.1719 37.8279 -1.97047 24.2995 37.1609 -2.146 23.0793 37.0319 0.222663 25.723 37.7044 -1.99587 25.9478 36.8501 -2.30808 21.8404 36.8682 -2.16064 27.7068 37.2625 0.537821 30.1064 37.564 1.40578 28.8843 38.238 -2.26032 29.365 36.983 2.37218 28.5014 37.3833 -2.98752 28.6626 38.3584 -20.4718 31.2665 42.2349 -19.2743 30.783 41.9183 -20.5446 31.219 43.935 -21.7484 30.7455 42.5166 -18.046 29.5436 44.303 -18.4245 29.8784 45.8667 -17.4985 28.9308 42.7771 -15.1986 28.0865 40.8316 -15.9741 27.8963 41.8948 -14.2767 26.7285 40.6221 -17.026 27.7828 42.0965 -16.878 26.6195 43.026 -15.9803 26.1487 42.4247 -13.0867 26.6873 41.4028 -13.8823 26.1854 42.0485 -16.7149 25.7427 44.3455 -11.0802 23.1618 41.965 -12.3017 23.4924 42.3799 -10.9537 23.6614 41.108 -10.1607 23.2967 41.596 -12.5592 24.4253 43.4716 -12.9537 23.3723 44.2537 -13.2036 25.876 43.3421 -10.1828 24.7834 40.7975 -14.8104 25.7958 42.788 -9.93097 26.8887 38.7497 -9.33288 25.7496 38.3848 -10.5069 26.4235 40.1192 -10.5985 27.3977 40.3257 -11.503 26.9756 38.8201 -10.4231 26.7447 41.0625 -19.4296 34.5906 39.6446 -19.5451 35.5726 38.0153 -18.4457 34.9778 40.4516 -18.3104 36.5738 40.269 -18.0119 36.2931 41.1812 -18.5336 37.1381 41.0639 -18.5162 38.2731 40.5646 -19.4275 35.2405 36.9615 -20.1841 36.6444 37.5252 -17.4647 37.4906 41.9022 -18.5059 40.0493 44.5539 -20.2259 39.8518 43.9421 -20.3664 40.3603 44.9814 -20.4992 39.1687 42.5386 -21.8547 39.2264 43.7221 -19.1196 38.9858 41.3449 -17.4473 38.6255 41.403 -20.2392 42.0196 46.5198 -19.0508 42.6413 45.3021 -19.7263 41.4285 47.5948 -20.9296 40.9271 46.2976 -18.9558 42.802 44.0496 -17.7698 43.4433 44.9261 -20.1164 38.9253 48.4542 -21.1911 37.7142 51.3881 -20.4608 38.7969 51.1383 -21.5098 39.5711 51.8469 -19.4943 38.6241 49.9295 -17.9055 39.4435 49.9249 -22.374 40.3897 51.6801 -16.4682 27.8139 38.5589 -15.7802 27.5498 37.4522 -15.9269 28.9344 37.2997 -15.5385 26.0032 37.4118 -17.0399 29.2719 36.3332 -14.4708 25.4475 38.5517 -12.9948 26.2667 38.682 -18.4424 29.2324 35.2856 -18.6859 30.3916 34.1312 -17.996 29.6718 34.0544 -17.782 30.6031 33.7594 -18.9406 31.4471 35.85 -18.5657 30.8618 36.879 -21.5613 29.9461 36.8823 -22.0101 31.1804 35.8638 -21.6362 33.2529 41.4547 -23.2647 32.6287 41.5477 -21.0455 32.4047 40.6182 -21.477 32.3529 39.4128 -24.
[...]
POINT_DATA 1686
FIELD FieldData 1
normals 3 1686 double
-0.369954 0.350615 -0.860351 0.789196 -0.181813 0.586612 -0.132213 -0.520402 -0.843624 0.77102 0.596363 0.223337 -0.367139 0.851873 0.373524 -0.311258 0.895586 -0.317874 -0.363061 0.915683 -0.172368 -0.489485 -0.708231 0.508736 0.082295 -0.27434 -0.958105 0.0981062 -0.930742 -0.352271 0.536284 0.749002 -0.389095 0.277996 -0.718186 -0.637908 -0.440061 -0.809221 0.38924 0.553835 -0.677383 -0.484168 0.653765 0.458786 -0.601753 0.222189 0.970913 0.0892139 -0.41704 0.667103 -0.617294 0.48694 -0.247913 -0.837513 -0.791681 0.595054 -0.138392 -0.927281 0.216353 -0.305519 0.263291 0.496994 -0.826846 -0.154869 0.466213 0.871012 0.186024 -0.69283 -0.696694 0.63909 -0.741233 0.205275 0.527699 0.685877 0.501105 -0.818603 -0.168558 0.549069 0.465271 -0.1794 0.866798 0.654275 -0.726117 0.21137 -0.140568 0.403959 0.903912 0.514763 0.245482 -0.821437 -0.825499 -0.556192 0.0959301 -0.440355 -0.610163 -0.658627 0.461453 -0.478014 0.747371 0.209262 -0.882401 -0.4214 0.816038 -0.000687686 0.577998 -0.0924226 -0.991176 0.0950135 0.387288 -0.538785 -0.748143 0.677855 0.234844 0.696679 -0.062783 0.649461 0.757798 -0.612925 -0.158939 0.77399 0.657046 0.649451 -0.382758 0.601431 -0.380603 0.702441 -0.26352 0.964293 -0.026389 -0.598799 -0.304224 -0.740869 -0.726305 -0.501008 0.470607 0.837098 0.492687 0.237752 -0.555667 0.533254 0.637867 -0.767448 -0.324231 -0.55308 -0.462437 -0.880636 -0.103113 0.647559 -0.272707 -0.711546 0.847969 -0.359267 0.389713 -0.665597 -0.0847634 0.741482 -0.225991 -0.845113 0.484471 -0.135204 0.953343 0.269921 0.309246 -0.864381 -0.3965 -0.255492 -0.164533 -0.952708 0.480654 -0.235186 0.844784 0.925314 0.153242 -0.346859 -0.266528 0.942574 -0.201288 0.70791 0.612012 0.352569 0.927915 0.280197 0.245894 0.83181 -0.518453 0.198239 0.769568 0.61264 0.180104 0.88075 -0.0129542 -0.473405 -0.107608 -0.427109 -0.897774 -0.494046 0.862818 0.107072 0.365515 -0.0810292 0.927272 0.583964 -0.457617 -0.670502 -0.358279 -0.0830463 0.929914 -0.487333 -0.869173 0.0839376 -0.120033 0.161517 0.979543 0.0407983 -0.390893 -0.919531 -0.14119 0.584934 -0.798697 0.827313 0.474197 0.301147 -0.431202 -0.544031 0.719788 0.464765 -0.128321 0.876086 0.895966 0.415711 0.156296 -0.126192 -0.84732 0.515873 -0.895496 -0.234843 -0.378068 0.764267 0.604634 0.224308 0.73358 0.568454 0.372453 0.0888355 -0.939269 -0.331486 -0.728057 -0.206602 0.653643 0.0635719 -0.995044 -0.0764592 -0.609944 0.791485 -0.0389702 -0.516689 -0.0472187 -0.85487 0.0388648 0.543759 -0.838341 -0.561301 0.823785 -0.0794909 0.901999 -0.386328 0.19274 -0.287047 0.512328 0.809398 -0.385792 0.785016 -0.484679 0.0844794 -0.126927 -0.988308 -0.042833 -0.928014 0.370074 0.559551 0.710055 -0.427463 -0.885415 -0.362347 -0.29111 -0.440298 -0.30648 -0.843924 0.148952 -0.501428 -0.852281 -0.506552 -0.591831 0.62701 -0.350149 0.834046 0.426337 0.623316 0.634442 -0.457123 -0.315528 -0.888718 -0.332598 -0.372125 0.625418 0.68584 -0.997855 0.0242785 0.0607879 -0.793604 -0.494176 0.354941 -0.0332241 -0.473543 -0.880144 -0.167869 0.106962 0.979989 -0.574815 -0.678166 0.457906 0.231975 -0.719225 0.654907 -0.312965 -0.760504 -0.568934 -0.507305 0.671572 0.54003 -0.0111633 -0.902431 0.43069 -0.846679 0.504172 0.170132 -0.0972878 0.38224 0.918927 -0.239008 0.794439 -0.558338 -0.504922 0.851186 0.143305 -0.878349 0.321002 0.354205 0.49927 0.607812 -0.61749 -0.157773 -0.69936 0.697139 0.45499 0.890476 -0.00598434 -0.843625 0.318225 -0.432469 -0.791073 -0.51494 0.330213 -0.309999 -0.888532 -0.338247 -0.192218 0.00537492 -0.981338 -0.323953 0.892387 -0.314164 0.925246 0.31603 0.209867 -0.241668 0.964457 -0.10686 0.233128 0.853225 -0.466538 -0.395634 -0.459589 -0.795142 -0.817095 0.572229 -0.0700707 0.758819 0.545533 -0.355792 -0.906321 -0.138278 -0.399326 -0.676641 0.0761195 -0.732368 0.12204 -0.937226 0.32667 0.236084 0.551909 -0.799788 -0.876504 -0.0875572 -0.473365 -0.485411 -0.854109 0.186746 -0.561398 0.790302 -0.24547 -0.817089 -0.178813 0.54808 0.391728 0.102477 -0.914357 0.133618 0.054955 0.989508 -0.887271 0.418412 0.194117 -0.693706 -0.7016 0.162876 0.553069 0.814637 0.174588 -0.972312 0.0690476 0.223253 -0.727275 0.0124771 0.686233 -0.517172 -0.451808 -0.726913 0.339759 -0.620594 0.706701 0.836333 -0.380327 -0.39484 -0.552907 0.548279 -0.627442 0.768982 -0.633168 0.0881131 -0.320606 -0.666288 -0.673255 0.563383 0.652696 -0.506544 0.422501 -0.883186 -0.203656 -0.708898 0.491329 -0.506024 -0.910795 -0.374813 0.173111 0.519892 -0.847577 0.106422 0.156259 -0.0881445 0.983775 -0.751142 -0.635031 0.180337 0.155186 0.957141 -0.244536 0.696678 -0.654909 0.292803 -0.966318 -0.176421 0.187366 0.974208 -0.221677 0.042159 -0.178264 0.547261 -0.817758 0.580809 -0.500718 -0.641827 -0.857382 0.35099 0.376434 0.732877 0.0954471 0.673633 -0.284039 -0.00022009 -0.958813 0.275374 -0.535549 -0.798346 0.959352 -0.127651 0.251692 -0.224604 -0.729315 0.64626 0.260312 -0.698298 0.666796 -0.594963 0.625775 0.504405 -0.798624 -0.319093 0.510273 0.527419 0.6886 0.497654 -0.257934 -0.348392 0.901162 0.380148 0.881876 -0.278894 -0.208337 -0.941801 -0.263833 0.55014 -0.043859 -0.83392 0.888606 -0.0814816 0.451375 0.502685 0.184828 -0.84448 -0.38502 0.475759 0.790831 -0.306381 0.696178 -0.649205 -0.805605 -0.565804 -0.175691 -0.360384 0.201558 0.910768 0.578015 -0.507838 -0.638748 0.270779 0.962532 0.01449 -0.961701 0.260306 0.0858652 0.769388 0.574658 0.278945 0.0916866 -0.844541 -0.527584 -0.728871 -0.207326 0.652505 0.180944 0.629171 -0.755912 0.248081 -0.943679 -0.218918 -0.332575 -0.450336 -0.828608 0.754321 0.306806 0.580405 0.401138 -0.877002 -0.264491 0.807445 0.0629337 0.586576 -0.177636 0.976451 -0.122432 -0.758272 0.271496 -0.592718 0.160809 -0.473565 -0.865954 0.799483 0.404542 0.444041 -0.923973 -0.341146 0.172899 0.141406 0.570065 -0.809339 -0.101554 -0.730413 -0.675414 0.043137 0.515073 0.85606 0.999181 0.0389866 -0.0108762 -0.0150438 0.922049 -0.38678 0.529433 -0.448997 0.719793 0.427088 0.812192 0.397418 -0.951638 0.0549922 0.30226 0.98382 0.157073 -0.0861801 0.508322 -0.508969 -0.694665 0.849177 -0.190106 -0.492704 0.0710287 -0.992635 0.0981334 -0.00324183 -0.10976 -0.993953 0.393028 -0.520895 -0.757758 0.782964 0.189569 0.592479 0.389532 -0.779375 -0.490754 -0.178709 0.0645983 0.981779 0.860072 0.492244 0.134059 -0.0146826 -0.844239 -0.535765 0.112389 0.944435 0.308886 -0.802809 0.580632 0.135517 -0.94299 0.014006 -0.332526 -0.207138 0.0118548 0.97824 0.146884 -0.863469 0.482541 -0.631467 -0.417685 0.653291 0.110806 0.20203 0.973091 -0.286325 0.958108 -0.00683935 -0.523836 -0.783392 0.334505 -0.125806 0.751409 0.647732 0.586402 0.330243 0.739643 -0.973984 -0.188414 0.125915 -0.331794 0.889344 -0.314611 0.578867 0.0749239 -0.811972 0.819256 -0.184027 0.543097 -0.423592 -0.804916 0.415549 0.315078 0.334914 -0.888008 0.885113 0.331844 -0.326273 0.563645 -0.646771 0.513801 -0.607731 0.746094 0.272042 0.521434 -0.734046 -0.435066 -0.396174 0.73156 -0.554857 0.645867 -0.711795 0.276051 0.308435 -0.16067 -0.937578 -0.832809 -0.522163 0.18378 0.837833 -0.460132 0.293794 0.253953 -0.478714 -0.840441 0.0243155 -0.849079 0.527707 -0.0535289 0.397644 -0.915977 0.56391 0.563851 0.603388 0.0784064 -0.0674694 0.994636 -0.849693 -0.520389 -0.0849544 -0.511167 0.344129 -0.787581 -0.979735 0.0273386 0.198425 -0.279526 -0.102778 -0.954622 0.967056 0.0590626 0.247619 0.0508507 -0.100259 0.993661 -0.528758 -0.491632 0.691891 0.998729 0.0117491 0.0490127 0.759686 0.0283895 -0.64967 -0.278608 -0.78447 0.554062 0.187708 -0.132526 -0.973243 -0.9533 -0.00771012 -0.301926 0.152546 -0.393956 0.906382 0.816036 -0.490007 0.30656 -0.0787631 -0.664158 -0.743432 0.00818849 0.850123 0.52652 0.46461 0.094983 0.880407 0.585696 0.50918 0.630632 -0.994694 0.0879662 0.0533439 -0.12076 -0.290527 0.949216 0.79216 0.597819 0.122863 0.177781 0.914755 -0.362791 -0.916165 0.193948 0.350751 0.374164 -0.624364 0.68569 0.650551 0.33667 0.680761 0.586448 0.794718 -0.156535 0.486717 -0.764009 -0.423552 0.496182 -0.441331 0.747683 -0.861832 -0.337139 -0.378925 -0.306515 -0.78316 0.541026 0.851912 -0.421658 0.310565 0.829014 0.559218 -0.00329515 -0.203893 -0.0340693 0.9784 -0.641149 0.744244 0.187159 -0.849358 0.0556159 -0.52488 -0.770421 -0.190319 0.608466 -0.461923 -0.719711 -0.518309 -0.488832 -0.694551 -0.527866 0.504425 -0.750778 -0.426483 -0.765173 0.248671 0.593863 0.993257 -0.0562277 0.101382 0.00294319 0.863419 0.504479 -0.814144 -0.572444 -0.0973465 -0.851866 0.508378 0.125999 -0.85481 -0.355041 -0.378479 -0.27145 -0.957218 0.100241 0.791916 -0.285752 -0.539643 0.675452 -0.734941 -0.0602168 -0.0904965 -0.279493 -0.955873 0.206042 -0.947779 0.243437 0.0626928 -0.0500585 -0.996777 -0.966157 -0.257901 -0.00524647 0.58264 -0.746837 0.320571 -0.117259 0.091201 0.988905 0.783129 0.613678 0.100541 -0.360104 0.741277 -0.566422 -0.535641 -0.478946 -0.695484 0.266767 0.937365 -0.224013 0.334695 0.907 0.255599 0.373566 -0.759985 0.531856 -0.499457 0.852034 0.156783 -0.425567 0.340469 -0.838435 0.442396 -0.881633 -0.164345 -0.39977 -0.806119 0.436298 0.523997 0.49879 -0.690388 -0.327421 0.10373 0.939167 -0.556471 -0.0906462 0.825908 0.641019 -0.5742 0.509303 0.483657 0.0431737 0.874192 -0.720147 -0.430357 -0.544225 0.742354 -0.181985 -0.64482 0.363849 0.152872 0.918828 -0.194831 -0.430795 -0.881168 0.390991 -0.640676 -0.660803 -0.384542 -0.830809 0.402349 0.530922 -0.717277 0.451259 -0.66733 0.717233 -0.200618 -0.51933 -0.446067 0.728917 0.378402 -0.916814 0.127528 0.659122 0.67604 0.329437 -0.136556 0.174194 0.975197 0.682422 -0.430722 0.590575 0.793034 -0.364667 0.48797 -0.428453 -0.0341275 0.902919 0.919579 0.134864 -0.369033 0.126545 0.499531 -0.857003 0.170949 0.967026 0.18878 -0.223579 -0.0859217 0.970891 -0.81531 0.483662 -0.31834 -0.148725 0.987146 0.0585181 -0.791497 -0.563864 -0.235777 -0.751275 0.187825 0.632699 -0.153187 -0.951215 0.267812 0.175345 -0.652985 0.736794 0.0837881 0.321166 0.943309 -0.820738 -0.100876 -0.562329 -0.0915564 0.97415 0.206516 0.326819 -0.363764 0.872276 0.2113 0.618269 -0.757031 0.65705 0.75102 -0.065219 -0.521719 0.845003 -0.117382 -0.22325 0.564287 0.794821 0.298469 -0.280716 0.912203 0.31587 0.854233 0.412932 -0.0936874 -0.950346 -0.296757 -0.850283 0.453577 0.266996 0.770512 0.633136 -0.0738231 0.986344 -0.161032 0.0345456 -0.73366 -0.358566 -0.577213 -0.874095 0.149953 0.46203 0.460378 -0.324472 -0.826299 -0.89512 -0.266807 0.357175 0.919231 0.14152 -0.367406 0.753113 -0.501811 0.425449 -0.379649 -0.675648 0.631955 0.808702 -0.0540234 -0.585733 0.892522 0.0845512 0.443008 -0.310808 -0.41687 -0.854177 -0.713617 0.214765 -0.666803 0.472338 0.856109 0.209702 0.626541 -0.583944 0.516193 0.23183 -0.972756 0.000254996 0.962087 0.109994 -0.249579 -0.0869351 0.884158 0.459029 0.00441929 -0.282802 -0.959168 -0.397129 0.496914 -0.771599 -0.777212 -0.0655891 -0.625811 0.709259 0.515545 -0.480797 -0.0212378 -0.779645 -0.625861 -0.167943 0.604915 -0.778378 0.262872 -0.766949 0.585395 -0.945043 -0.267414 -0.188106 0.804894 0.211242 0.554547 0.671073 0.607996 -0.424266 -0.457492 0.227943 -0.859502 0.213952 0.931246 -0.294966 0.903914 0.211486 -0.371771 0.689961 -0.71976 -0.0768048 0.850655 0.125193 0.510601 -0.4758 -0.710516 0.518441 -0.723478 0.637645 -0.264555 0.274652 0.596746 -0.753963 0.946024 -0.0718045 -0.316041 -0.682534 -0.695984 -0.223052 -0.355391 -0.776396 -0.520487 -0.076092 0.724672 -0.68488 -0.465426 -0.862832 0.197229 -0.995333 -0.0861443 0.0434883 -0.734516 0.678277 -0.0206507 -0.476999 -0.220829 -0.850709 -0.0862224 -0.903617 0.419574 -0.430661 -0.207484 0.87834 0.277404 -0.955721 -0.0982081 0.620216 0.14717 -0.770502 -0.0647308 -0.580246 -0.811865 -0.684947 -0.727417 -0.0413646 -0.625074 0.780259 0.0218696 -0.670061 -0.420386 0.611796 -0.0134934 0.975706 0.218669 0.490149 0.35573 0.795745 0.272434 -0.618515 0.737034 -0.217715 -0.974245 -0.0587106 0.218378 -0.973648 -0.0657251 0.930741 0.352207 -0.0983446 0.979534 -0.153692 -0.12997 0.262161 0.963484 -0.0544907 0.341222 0.124942 0.931642 0.578463 -0.0128274 -0.815608 0.802821 0.0225652 0.595793 -0.122346 0.0824306 -0.989058 -0.382271 0.309442 0.870698 0.575049 0.816142 0.0568434 -0.362517 -0.474446 0.802174 -0.875973 0.481327 0.0315453 0.9755 -0.173259 -0.135578 0.0252074 0.499849 0.865746 0.224998 0.974323 0.00844895 -0.506145 -0.78766 -0.351296 0.199791 0.474475 -0.857296 -0.24328 -0.161708 0.956382 -0.0297657 -0.12746 -0.991397 -0.915622 -0.237962 -0.324054 0.149807 0.241626 -0.958736 -0.352006 0.934168 -0.0584927 -0.149849 0.530401 0.834398 0.917577 -0.3868 -0.091859 0.155928 -0.403591 0.901555 -0.13614 0.632708 -0.762329 -0.804598 -0.453317 -0.38357 0.949351 0.153476 -0.274186 -0.0564277 0.0151516 0.998292 -0.271088 0.855854 0.440482 0.0655333 -0.14645 0.987045 0.0924782 -0.711123 0.696959 0.703213 -0.0294773 -0.710368 -0.100045 0.621831 -0.776735 -0.5072 -0.629849 -0.588251 0.814981 0.228862 0.53238 0.557314 -0.182958 -0.809894 -0.55232 -0.241551 0.797869 -0.048981 -0.100891 0.993691 0.455313 -0.172379 -0.873485 0.355459 -0.929203 -0.10115 0.92065 0.182004 -0.345366 0.490394 0.637662 0.594055 0.813108 -0.202168 -0.545879 0.864991 0.459138 0.202441 0.0518842 0.661305 0.74832 0.742033 -0.542028 -0.394451 -0.969417 -0.23946 0.053761 0.0324631 -0.998327 0.0478566 0.0120113 0.216152 -0.976286 -0.923871 0.325288 -0.201618 -0.682638 -0.61492 -0.394816 0.318769 0.324048 0.890718 -0.0231903 -0.99252 0.119861 0.8413 0.540458 0.0109405 -0.448353 0.85035 -0.27547 0.844518 0.522591 0.116995 0.390982 -0.753915 -0.527964 0.642729 0.741862 -0.191156 0.755576 -0.0373023 0.653998 0.800938 0.103358 0.589759 -0.301829 -0.873639 0.381646 -0.194055 -0.355764 -0.914207 -0.65322 0.445194 0.612459 0.340019 -0.225923 0.912878 0.471719 -0.555687 0.684612 -0.717118 0.68376 0.134962 0.38569 0.485795 0.784377 -0.375079 -0.601872 0.705029 -0.840868 0.194063 -0.505252 -0.720825 0.325126 0.612131 0.738106 0.367275 -0.565958 -0.870411 0.488019 0.0649724 -0.685033 0.432095 -0.586535 0.697361 0.714304 -0.0588014 -0.801132 -0.339698 -0.49274 0.325495 0.59423 -0.735489 -0.166381 0.792383 -0.586896 -0.0833619 -0.804983 -0.587412 -0.464415 -0.373439 0.803033 -0.0781806 -0.960548 -0.2669 0.443139 -0.324394 -0.835701 0.434983 -0.399172 0.807125 0.52132 0.636154 -0.568801 0.761908 0.320047 -0.563087 0.455146 0.781988 0.425837 0.849679 -0.507513 0.143095 -0.218709 -0.0457558 -0.974717 -0.484325 -0.722274 -0.493711 0.996036 -0.0866492 -0.020128 -0.699082 0.283296 0.656527 -0.95761 0.0564898 -0.282473 -0.258529 -0.226806 -0.939001 -0.0157369 -0.999597 -0.0236402 -0.605014 -0.688435 0.400019 0.590958 0.248117 0.767598 0.993554 -0.113097 0.00768586 -0.400019 0.150549 0.904058 0.00204008 0.292009 -0.956413 -0.21781 0.922492 -0.318697 -0.385821 0.135653 -0.912546 -0.168011 -0.78684 -0.593848 -0.855676 -0.470732 0.215014 -0.974518 -0.106224 -0.197563 -0.982181 -0.187503 -0.0128056 -0.13098 0.138601 -0.981649 -0.226489 -0.345421 0.910707 0.731758 -0.681311 0.0185944 0.121285 0.966679 -0.225437 0.999639 0.00461888 -0.0264565 -0.367945 0.8187 0.440849 -0.195103 0.709026 0.677656 0.918383 0.395064 0.0222934 -0.984854 0.169438 -0.0368012 -0.253794 -0.386869 0.886522 0.0319987 0.588496 -0.807867 -0.877315 -0.32423 -0.353826 0.696836 0.506073 -0.508241 -0.948495 0.093429 0.302703 -0.706431 0.645239 -0.290898 -0.406761 0.141187 0.902559 0.374769 -0.532943 -0.758631 0.595596 -0.784768 0.171479 0.953059 -0.297458 -0.0565376 -0.137397 -0.880611 -0.453482 0.179463 0.0291664 -0.983332 0.380733 0.0183979 -0.924502 0.133862 0.029422 0.990563 -0.96244 0.119894 0.243587 0.181005 0.793099 0.581577 0.124926 0.868027 -0.480545 0.920384 0.336612 0.198962 -0.507819 0.669815 0.541726 0.305102 -0.0841368 -0.948596 -0.111886 0.456045 -0.882895 -0.425818 0.494915 0.757455 -0.806453 0.545565 -0.228018 0.95128 0.243398 -0.189271 -0.190869 -0.772633 -0.605481 0.803409 -0.0174086 -0.595172 0.874431 -0.335852 0.350105 -0.7525 0.580617 -0.310848 -0.157368 -0.968269 -0.19414 0.482936 -0.640888 0.596686 0.0710218 -0.318444 0.945277 0.0296764 -0.998966 0.0344472 0.496623 -0.429262 0.754386 -0.92728 -0.345404 0.14439 0.574868 0.110068 -0.81081 -0.16225 0.849983 0.501202 0.168438 -0.477005 -0.86261 0.274015 -0.883862 0.379082 -0.928858 0.140904 -0.342592 0.145963 0.844854 -0.5147 0.902387 0.365912 -0.22761 -0.672229 -0.695626 -0.253402 -0.920602 -0.376895 -0.102184 -0.065962 -0.545852 -0.835281 -0.988334 -0.148865 -0.0321641 -0.866063 -0.419367 0.27215 -0.781426 -0.307109 0.543192 -0.531206 0.843936 -0.0747815 0.34035 0.421844 -0.840363 0.514979 -0.252772 -0.819087 0.85696 -0.29567 0.422136 0.295481 -0.915933 -0.271583 -0.67344 -0.114044 0.730392 -0.639586 0.752574 0.156726 0.500496 -0.399035 0.768294 -0.135727 0.806581 0.57533 -0.995013 0.0994689 -0.00738042 0.996285 -0.0709134 0.048853 -0.1373 0.184499 0.973195 -0.9547 0.285334 0.0844556 -0.193915 0.118799 0.973799 0.523912 0.329641 0.7854 -0.495736 -0.850935 0.173653 0.57638 -0.728258 -0.370709 -0.12069 0.392683 0.91172 -0.641533 -0.728821 -0.239282 0.0532885 -0.996342 -0.0668011 -0.620745 0.255943 -0.741059 0.950339 0.229544 -0.210153 0.827142 -5.41491e-05 0.561994 -0.230782 0.805317 0.546081 -0.204868 -0.850144 -0.485062 0.457718 -0.886569 -0.0670078 -0.129158 -0.509865 0.850503 0.386773 0.911494 -0.139945 -0.00649326 -0.373791 -0.92749 0.488066 0.531871 0.69203 -0.753745 0.643978 -0.130999 0.791026 0.579458 -0.19623 0.666026 -0.637941 0.386577 -0.830566 -0.496604 0.252082 -0.52908 0.688284 -0.496326 -0.404291 0.25435 0.878553 0.521204 0.845996 0.112419 0.789226 -0.522012 -0.323459 0.621177 0.252765 0.741787 -0.541642 -0.271391 -0.795594 0.477781 -0.69299 0.539899 -0.264407 0.637546 0.723618 -0.842257 0.136458 0.52152 0.281723 0.66782 0.688948 0.221329 -0.455898 0.862073 -0.902751 -0.401788 0.153647 0.989533 0.0246326 0.14219 0.825626 -0.338508 0.451392 -0.0503229 -0.837153 0.544649 -0.563223 0.619902 -0.546353 0.493262 -0.651456 0.576452 -0.823372 -0.522094 -0.222433 0.820283 0.530423 -0.213977 -0.631333 0.323655 0.704745 0.348189 -0.910142 0.224512 -0.0826248 0.0435201 -0.99563 -0.752446 0.634323 -0.177368 0.382741 -0.542051 0.748124 -0.261704 0.817138 0.513611 0.349401 -0.567964 -0.745209 0.640835 -0.433854 0.633326 -0.839496 -0.424722 0.338907 0.514288 -0.660649 0.546855 0.656301 -0.556329 -0.509673 0.698209 0.659566 -0.278346 0.657825 -0.699526 0.279157 0.583852 0.443448 -0.680052 -0.90923 -0.288902 0.299727 -0.610399 0.6256 -0.485837 0.493377 -0.0269629 0.869397 0.136717 -0.87175 0.470489 -0.35666 -0.844787 -0.398909 -0.624908 -0.41381 -0.662005 0.16488 0.979438 -0.116254 -0.474786 0.195576 -0.858096 0.399241 -0.776533 0.487445 0.947683 -0.25517 0.191793 0.683406 -0.167486 -0.710566 -0.661435 0.682024 0.312005 0.409851 -0.0607004 0.910131 0.958376 -0.267456 0.099913 -0.314606 0.838747 -0.444439 -0.906293 -0.357588 0.225308 0.890665 0.239042 0.386749 -0.610524 0.154158 -0.77685 0.303423 -0.207279 -0.930038 0.295938 -0.535372 0.791073 -0.188875 -0.451872 0.871859 -0.867691 -0.496209 -0.0298227 0.622006 0.694481 0.36167 0.783351 0.409946 -0.467231 -0.0640101 0.520984 0.851163 -0.578506 0.803991 0.137587 0.0640878 -0.942749 -0.327287 -0.609358 0.0701787 -0.789784 -0.906438 -0.213982 -0.364117 0.430757 0.67926 0.594183 -0.773011 0.62328 -0.118224 -0.803092 0.0848891 0.589778 0.457329 0.428385 -0.779318 -0.523466 0.763672 -0.377874 -0.916914 -0.324541 0.232254 0.610076 0.579036 0.540855 0.869856 0.415538 0.265856 -0.50085 0.86215 -0.0764642 -0.0327353 0.98653 0.160269 -0.566785 0.582641 -0.582482 0.404477 0.906657 0.119878 -0.537562 0.801438 0.262153 0.909745 0.0123098 -0.414984 -0.796542 -0.367686 -0.479925 -0.202911 0.73875 0.64271 0.495163 0.502264 0.708903 -0.404115 0.818087 -0.409175 -0.264755 -0.235896 -0.935017 -0.321343 -0.931708 -0.169288 0.239313 0.704279 -0.668372 -0.53625 0.440209 -0.720175 -0.862849 -0.494259 0.105831 0.684344 0.0250116 -0.72873 -0.782349 0.587663 0.206354 -0.487427 -0.102562 0.867119 0.294921 -0.690225 0.660766 0.512097 -0.534698 0.672201 0.287862 0.91588 0.279822 -0.664585 0.230112 -0.710897 0.7363