# vtk DataFile Version 4.0
Generated by libgran
ASCII
DATASET POLYDATA
POINTS 1686 FLOAT
-33.1013 1.61296 6.71755 -31.8134 0.75541 7.8694 -33.8654 1.74902 5.11065 -32.6893 2.60165 6.15526 -34.3004 -1.25464 8.11735 -34.3916 2.3407 4.08131 -31.5301 -0.30597 12.5867 -31.398 -1.99603 13.0799 -32.0829 0.382699 11.5926 -32.1722 -0.70846 10.1772 -31.6474 0.946375 10.2086 -31.0535 1.05449 9.04481 -31.0112 -3.61385 15.6115 -30.1797 -3.28038 14.629 -30.1991 -2.13404 14.6435 -29.5152 -0.578488 14.2115 -28.8723 -0.321132 14.933 -28.867 0.261961 13.534 -32.6431 -4.28115 13.6392 -34.6346 -4.93495 15.0853 -33.5723 -4.40493 14.4864 -33.7494 -4.74844 16.192 -35.4431 -5.3954 14.1286 -33.0854 -5.0955 17.1445 -33.3531 -3.76298 17.6823 -33.6583 -3.34132 18.7705 -32.3711 -3.29116 19.0703 -32.0065 -4.77992 21.7623 -33.1444 -3.93671 22.3809 -32.355 -3.88971 20.7057 -31.8383 -5.9992 22.2654 -32.7695 -7.52652 21.9835 -32.9172 -3.9011 24.0489 -31.5696 -4.30361 19.4071 -32.1096 -8.20038 20.0145 -32.7686 -9.45081 19.8099 -30.8107 -8.46948 19.9224 -29.7032 -8.49494 19.8755 -29.3454 -7.18011 21.0668 -30.1259 -6.5697 22.5026 -29.1237 -5.72146 21.1313 -31.9502 -10.4555 20.8576 -23.6317 -12.5154 23.4552 -24.556 -12.0997 22.5944 -25.817 -13.0402 22.5434 -23.25 -11.6762 25.2192 -24.6349 -11.655 25.6469 -27.2415 -13.9728 22.6855 -29.0766 -11.6808 19.9331 -28.0545 -11.1705 19.1166 -28.593 -12.7788 20.5063 -30.1134 -12.5232 20.8427 -27.8503 -13.7172 21.5877 -31.0042 -11.4921 21.5922 -27.0782 -12.4799 18.2399 -27.0098 -13.7922 17.1652 -26.1306 -15.913 17.9547 -25.7808 -15.8326 16.6741 -26.9844 -15.0482 16.7045 -24.8544 -15.2495 18.9136 -23.9605 -15.3925 16.3198 -23.3001 -15.029 19.3808 -23.2668 -16.0919 19.7716 -23.1978 -13.9654 12.4977 -24.2194 -14.4424 12.2584 -24.5119 -12.8907 12.8326 -21.934 -13.9737 12.9109 -21.8085 -14.8309 11.4996 -21.8392 -13.5881 14.7326 -22.5939 -14.2089 16.0345 -36.4345 15.8354 3.89617 -36.7978 15.3749 2.00053 -36.7957 14.3918 1.81806 -35.3655 16.2922 4.98856 -34.7608 16.11 5.88591 -33.8012 16.3869 5.83641 -34.132 15.8687 6.62506 -40.0014 14.9254 1.61969 -40.8431 15.6714 0.911833 -38.9854 16.2374 1.13744 -39.2647 14.531 2.35287 -40.2716 13.16 1.81335 -41.0327 12.13 2.24372 -41.7422 11.0357 2.96321 -46.0255 11.6986 2.63483 -46.285 10.7809 1.95051 -46.6933 13.0256 1.81521 -45.3256 13.2141 3.7342 -42.6892 10.5377 2.92774 -41.806 9.48893 2.07812 -42.2294 9.74391 0.84747 -41.9866 8.78461 0.275415 -41.8045 8.02443 1.65096 -42.186 11.211 -0.123687 -43.6218 10.2521 0.401121 -42.3588 11.5863 -1.39757 -41.9506 6.58233 1.21955 -42.18 6.57892 2.82377 -43.5961 8.1006 -5.91812 -42.8431 7.81327 -6.97568 -43.8541 6.37421 -6.62383 -44.2283 9.64088 -7.535 -45.0156 9.08874 -8.00284 -45.1406 9.88009 -6.28206 -46.226 8.72028 -8.58214 -45.9279 9.32796 -6.7499 -44.8209 4.88738 -6.27989 -44.6114 10.2018 -4.20165 -45.3978 10.1949 -5.28698 -44.6333 10.1913 -2.97472 -44.9269 10.0222 -1.90251 -45.6359 9.70776 -1.09387 -44.7354 9.54403 -0.546604 -46.6908 11.0771 -1.26121 -44.9673 10.8457 0.57774 -42.5829 4.33967 -8.96022 -41.4574 4.481 -10.2399 -41.8639 3.28692 -8.73071 -42.8168 5.58626 -8.56093 -43.1879 6.82023 -8.9402 -44.8177 6.76217 -8.69117 -42.3123 1.74895 -8.1807 -45.9522 6.32937 -9.11058 -44.624 1.41024 -5.21034 -43.9796 2.57223 -5.46955 -45.1432 3.28801 -5.59703 -42.8194 3.65605 -5.97354 -25.3775 13.2678 19.5044 -25.8786 14.154 20.3597 -24.4216 14.5077 19.7958 -26.7067 12.3906 18.5334 -28.4529 12.6232 19.983 -28.9664 10.1495 18.1338 -29.3882 11.7597 17.2802 -29.5302 9.00846 17.9886 -28.8524 8.27477 18.4112 -28.6951 11.7826 16.5596 -31.0808 8.39592 18.3948 -30.3292 9.04892 16.7554 -31.3446 8.00489 20.0147 -26.4929 4.14255 13.0761 -26.3076 3.03509 12.897 -26.8212 5.29462 13.6531 -28.3599 4.59097 13.5037 -27.7623 2.26387 13.607 -27.5009 1.9651 12.1582 -28.1762 1.55102 14.9414 -27.1516 1.2159 10.988 -26.8086 1.43689 9.99441 -29.3862 8.75656 15.5992 -30.6299 8.70909 15.1313 -28.2167 8.96642 14.8651 -30.701 7.2405 14.1221 -31.833 8.64741 14.1165 -31.234 6.0046 14.0201 -29.8377 5.50799 13.7397 -33.5841 6.79046 5.74451 -34.7361 6.4019 5.20617 -32.9516 7.60901 6.31775 -32.6205 5.94601 6.8704 -36.4371 5.97096 6.02121 -34.503 4.26869 6.94677 -37.5937 6.59503 5.67807 -37.5609 6.58908 4.16365 -40.8041 5.54668 4.71333 -39.2621 5.00129 4.62722 -42.0057 6.03974 4.43413 -42.5395 5.47364 2.77 -38.2226 6.31694 3.40934 -38.5886 4.26215 5.81144 -32.4786 5.67604 11.832 -31.9198 8.04754 10.9705 -33.1077 8.26866 12.2376 -33.2128 8.55067 13.3031 -33.9505 7.48963 13.7332 -32.2471 10.0874 13.5124 -34.3258 6.14794 14.3225 -34.7753 3.49245 9.50449 -34.2608 3.28164 10.7123 -33.9637 3.71389 7.70514 -33.5474 3.471 11.8987 -25.7334 23.3053 28.526 -26.1097 22.0167 29.0397 -25.7184 22.8493 30.0985 -25.5 23.483 27.229 -25.9278 24.9368 27.8507 -26.7242 26.0952 27.9315 -22.9415 23.6114 28.4209 -22.6038 23.8605 30.7284 -23.4582 24.4523 31.9082 -22.3339 23.6369 29.4457 -21.8942 23.3367 28.4712 -23.7385 25.4259 28.9891 -23.4239 24.5931 33.1368 -25.5115 27.4941 33.3302 -25.1976 28.4603 34.1908 -26.23 29.2991 33.4571 -25.8294 26.8407 32.4929 -24.8535 26.1728 32.2171 -23.6581 29.0453 35.2634 -25.5546 25.2794 31.5562 -20.9066 26.0154 35.545 -20.9808 24.7215 35.8424 -20.8259 27.1108 35.4581 -19.8711 27.8368 36.276 -20.9154 28.5935 35.7406 -18.3633 27.6256 37.1063 -18.5259 28.8267 36.6207 -21.9351 29.4827 35.4842 -19.9907 29.6704 35.1821 -27.7625 23.6727 33.3374 -28.307 25.8978 33.7259 -30.3242 24.7394 35.8166 -30.1721 23.6228 34.9491 -29.7613 22.9824 33.2058 -26.4498 23.4659 33.2188 -31.438 20.6987 31.2862 -32.0524 21.5206 32.7527 -30.1746 20.5201 30.9081 -29.3087 20.239 30.4944 -32.186 22.549 34.0228 -33.0668 22.0984 33.8775 -34.8637 22.5251 33.7063 -35.6217 22.42 32.4125 -35.2003 21.5642 31.9357 -36.6574 23.7731 31.6212 -37.1256 23.5641 33.2643 -37.6074 24.2502 32.271 -36.2555 21.6289 33.7635 -37.195 24.5636 34.8557 -37.4099 25.5829 32.958 -41.1199 25.0467 36.2298 -40.5832 26.1601 35.7395 -39.6146 25.4109 35.2491 -38.2178 25.4143 34.9527 -41.0986 25.3541 34.0502 -37.1083 25.6543 34.5787 -34.8175 7.84871 23.3725 -34.7036 6.76435 24.1327 -36.1805 7.83848 24.3212 -33.5892 7.86428 22.2721 -34.7997 9.07009 22.5637 -32.2209 6.75377 21.6615 -31.305 6.17757 20.6927 -31.868 5.46862 19.9928 -30.2614 5.8645 19.73 -32.4344 4.45546 19.3442 -32.215 3.88941 20.6454 -28.3931 4.46555 18.7851 -28.1461 5.5277 18.4794 -39.6175 8.24363 23.8545 -39.9663 7.42033 24.8387 -41.4269 6.95395 24.297 -39.9392 9.64605 24.2633 -41.2975 9.2951 23.8214 -38.1187 6.05764 21.6979 -38.2924 7.56533 22.5196 -37.3632 5.69545 22.4462 -36.6185 5.31036 22.9915 -35.1385 5.85794 22.0096 -35.606 4.70733 23.2923 -29.7261 15.6976 22.7701 -30.7766 15.7111 23.5853 -29.4879 15.46 24.6381 -28.7264 15.2499 21.9703 -29.7101 14.8821 21.0589 -31.7655 16.4672 23.9074 -31.2678 17.4883 25.2511 -30.1697 18.2059 26.6761 -32.8697 10.0382 20.8229 -31.7489 9.87068 21.475 -31.2906 10.9799 20.5449 -33.9381 10.8298 20.8388 -34.6421 9.80036 21.6573 -30.037 11.2605 21.1486 -30.0074 12.2592 21.1081 -29.0525 19.5918 27.0368 -29.0737 18.0214 26.8263 -29.8076 19.7617 29.2319 -31.2233 19.7445 28.1737 -28.7499 16.5048 27.0132 -28.0205 15.4177 27.8854 -30.9932 19.9419 25.8058 -31.9385 19.3465 26.8709 -30.8722 21.2642 25.8779 -32.3955 21.9778 25.4961 -34.0114 21.8053 25.5849 -33.9447 23.0589 23.8168 -6.09687 25.3036 40.2232 -5.1229 25.2359 40.4395 -7.36218 24.888 40.1791 -5.56898 24.5139 39.9107 -8.21083 26.0924 41.1028 -8.99508 24.6321 40.5163 -9.02777 25.727 40.6566 -9.05719 26.625 41.0956 -4.90199 23.5043 40.2638 -3.75623 24.1063 39.7017 -4.55266 21.8094 40.4467 -9.78889 23.704 39.4384 -6.06806 20.1648 41.7412 -6.00468 21.0255 40.4685 -7.02069 19.1032 41.9727 -7.57251 18.1775 42.2801 -4.13088 21.1841 41.4564 -1.16789 25.357 40.8707 -2.18088 25.4918 40.02 -2.44946 24.282 39.994 0.0345322 26.793 40.7465 -2.00658 27.0893 39.5386 -2.62796 23.0383 39.8977 -2.06964 28.8921 39.7319 0.759117 31.1006 40.231 1.39524 29.8991 41.1546 -1.97021 30.5091 39.2705 2.45263 29.3554 40.5242 -2.96613 30.0282 40.5709 -21.2733 32.7582 42.5546 -20.0204 32.3512 42.3736 -21.4396 32.9821 44.234 -22.5103 32.164 42.8666 -18.8732 31.5598 44.9929 -19.383 32.0812 46.4656 -18.1951 30.7816 43.6006 -15.7325 29.74 41.9786 -16.5987 29.6675 42.9848 -14.7939 28.3778 42.013 -17.6641 29.5661 43.1057 -17.5973 28.5224 44.1758 -16.6493 27.9946 43.7154 -13.6774 28.4429 42.8942 -14.5264 28.0113 43.5227 -17.551 27.8506 45.6191 -11.6909 25.0466 44.0823 -12.9554 25.3935 44.3153 -11.476 25.4367 43.187 -10.7377 25.1586 43.8016 -13.3306 26.4469 45.2523 -13.8119 25.4903 46.1064 -13.9642 27.8645 44.8982 -10.69 26.5309 42.8204 -15.5156 27.7007 44.219 -10.2699 28.3594 40.5468 -9.66623 27.1853 40.3336 -10.9693 28.0604 41.905 -11.0938 29.0503 41.9723 -11.8424 28.4133 40.4566 -10.9818 28.503 42.8017 -20.3482 35.7133 39.5162 -20.415 36.4011 37.7401 -19.4789 36.3291 40.3128 -19.4899 37.8996 39.9492 -19.1852 37.754 40.8905 -19.7812 38.5266 40.6717 -19.8598 39.594 40.0455 -20.1828 35.9165 36.7676 -21.1034 37.3101 37.035 -18.7673 39.0722 41.4743 -20.1749 42.0152 43.7061 -21.8348 41.4959 43.1174 -22.0741 42.1713 44.0365 -21.9754 40.5456 41.8571 -23.3619 40.6315 43.0023 -20.5431 40.3299 40.7329 -18.8459 40.1396 40.8481 -22.3034 44.1873 45.0922 -21.2457 44.7161 43.7199 -21.6956 43.985 46.2573 -22.7632 42.9613 45.1644 -21.167 44.666 42.457 -20.0986 45.6231 43.184 -21.6107 41.7554 47.7319 -22.4218 41.1218 50.9314 -21.9197 42.2246 50.3839 -23.1008 42.9382 50.9295 -20.9412 41.9454 49.2051 -19.5382 43.021 48.9247 -24.1187 43.5004 50.6254 -16.757 28.9916 39.5802 -15.9775 28.6158 38.5707 -16.1976 29.9484 38.1999 -15.6843 27.0933 38.7896 -17.2606 30.0637 37.1306 -14.7369 26.7677 40.1106 -13.3076 27.6601 40.2753 -18.5949 29.7967 36.0285 -18.8437 30.7837 34.7247 -18.1065 30.1098 34.7748 -17.9349 31.0099 34.3741 -19.2597 32.0137 36.2819 -18.9039 31.601 37.3978 -21.8402 30.4763 37.4259 -22.3036 31.4951 36.1971 -22.5654 34.4668 41.3782 -24.1322 33.7025 41.486 -21.8396 33.5586 40.733 -22.1665 33.2726 39.5275 -25.1232 32.0503 41.6765 -25.
[...]
POINT_DATA 1686
FIELD FieldData 1
normals 3 1686 double
-0.448544 0.509267 -0.734476 0.839342 -0.348284 0.417376 -0.315574 -0.373209 -0.872427 0.860527 0.479423 0.172184 -0.924164 -0.339463 -0.175173 -0.210629 0.964891 -0.156911 -0.473822 0.880477 -0.0158904 -0.341725 -0.809587 0.477277 -0.0789208 -0.191809 -0.978254 -0.0104412 -0.89935 -0.437105 0.514396 0.755486 -0.405756 0.0794481 -0.647368 -0.758026 -0.301971 -0.889788 0.342186 0.529578 -0.556323 -0.640352 0.510149 0.590021 -0.625799 0.173742 0.965528 0.193828 -0.469189 0.708172 -0.527593 0.474448 -0.125078 -0.871352 -0.847204 0.523664 0.089568 -0.980302 0.117418 -0.158811 0.081972 0.64744 -0.757696 -0.0950935 0.30393 0.947937 0.171778 -0.577863 -0.797851 0.759068 -0.650995 0.00452317 0.491331 0.681528 0.542322 -0.796543 -0.259872 0.545881 0.490691 -0.209706 0.845722 0.823043 -0.501369 0.266887 -0.314851 0.341832 0.885449 0.474564 0.388841 -0.789679 -0.654837 -0.717913 0.236198 -0.2764 -0.80941 -0.51813 0.542037 -0.306221 0.782576 0.310767 -0.802741 -0.508951 0.783782 0.314969 0.535238 0.124831 -0.935462 0.330649 0.515094 -0.584071 -0.627328 0.592479 0.558606 0.580456 -0.234693 0.756225 0.610772 -0.545825 -0.145819 0.825114 0.456392 0.702422 -0.546177 0.693543 -0.0691907 0.717085 -0.33976 0.914255 -0.220684 -0.584477 -0.498618 -0.64013 -0.676571 -0.441858 0.589078 0.798986 0.592793 0.101078 -0.586007 0.614048 0.528717 -0.747906 -0.490769 -0.44697 -0.398293 -0.906106 0.142599 0.623836 -0.395803 -0.67392 0.881891 -0.191933 0.430615 -0.63846 0.0636705 0.767017 -0.139139 -0.746407 0.650782 -0.252408 0.967462 -0.0175212 0.352418 -0.913614 -0.20276 -0.284014 -0.398683 -0.872002 0.544385 -0.00738608 0.838803 0.894164 0.0730335 -0.441743 -0.309437 0.857341 -0.411358 0.731775 0.670878 0.120115 0.926107 0.366983 0.0874545 0.822569 -0.450443 0.347105 0.789307 0.61244 -0.0437116 0.85496 -0.198097 -0.479376 -0.166637 -0.675131 -0.718631 -0.459183 0.876526 -0.144404 0.408818 0.189783 0.892665 0.534323 -0.667462 -0.518645 -0.314038 0.195793 0.929002 -0.440577 -0.816627 0.372844 0.133391 0.120653 0.983692 -0.229976 -0.339781 -0.911954 -0.232089 0.64341 -0.729491 0.935523 0.336125 0.1087 -0.33081 -0.518266 0.788648 0.628812 -0.241361 0.739149 0.959621 0.276906 -0.0495003 -0.139026 -0.834206 0.533641 -0.980749 -0.0881982 -0.174219 0.876987 0.477758 0.0513904 0.875675 0.439747 0.19954 -0.131186 -0.931235 -0.339989 -0.629907 -0.098777 0.770363 -0.0796412 -0.995525 -0.0508722 -0.510945 0.858179 0.0496362 -0.770476 -0.0595131 -0.634685 -0.156925 0.468792 -0.869258 -0.472971 0.881057 -0.00614538 0.867306 -0.497537 -0.015396 -0.0158493 0.551209 0.834216 -0.439188 0.806196 -0.396437 -0.196425 -0.153105 -0.968492 -0.0143732 -0.91329 0.407055 0.48259 0.660912 -0.574719 -0.953271 -0.297966 -0.0499116 -0.655438 -0.285601 -0.699166 -0.13164 -0.528811 -0.838469 -0.361067 -0.532222 0.765748 -0.18824 0.863922 0.467123 0.564739 0.576586 -0.590439 -0.446326 -0.862477 -0.238593 -0.171428 0.661177 0.730381 -0.958741 0.109038 0.262538 -0.740864 -0.421958 0.522563 -0.251615 -0.477493 -0.841838 0.0464522 0.130181 0.990402 -0.520421 -0.624346 0.582541 0.302834 -0.729895 0.612818 -0.48359 -0.736799 -0.472512 -0.324705 0.719327 0.614114 0.0311088 -0.888359 0.458095 -0.740121 0.573882 0.350543 0.160344 0.410148 0.897813 -0.314749 0.795446 -0.517879 -0.392218 0.891543 0.226531 -0.74998 0.399618 0.527102 0.375527 0.540951 -0.752563 -0.0309329 -0.653124 0.756619 0.516036 0.846978 -0.127808 -0.887133 0.386992 -0.251458 -0.742592 -0.445056 0.500481 -0.417558 -0.884849 -0.206609 -0.391986 0.0122631 -0.919889 -0.321002 0.902745 -0.286374 0.965428 0.259251 0.0271715 -0.198133 0.975028 -0.100314 0.194836 0.824561 -0.531166 -0.423234 -0.522448 -0.740217 -0.924337 0.363832 0.115009 0.532652 0.717493 -0.448871 -0.906024 -0.354753 -0.230804 -0.781843 -0.0972588 -0.615843 0.370853 -0.919173 0.132621 -0.0509501 0.69106 -0.720999 -0.934662 -0.221859 -0.277822 -0.256852 -0.955548 0.144762 -0.744006 0.668173 -0.000424085 -0.61601 -0.390675 0.684035 0.135584 0.262326 -0.955407 0.352267 -0.000352243 0.9359 -0.887418 0.397478 0.233452 -0.702122 -0.709978 0.0543646 0.55906 0.754596 0.343565 -0.979644 0.0509411 0.194169 -0.752573 -0.0612485 0.655655 -0.491181 -0.360018 -0.793176 0.338622 -0.651597 0.67879 0.840476 -0.389182 -0.377012 -0.497546 0.610175 -0.61655 0.807469 -0.554691 -0.20078 -0.436254 -0.60216 -0.668645 0.362061 0.764554 -0.533262 0.365148 -0.866432 -0.340533 -0.76682 0.540478 -0.346225 -0.898128 -0.369464 0.238457 0.498152 -0.866078 -0.0418791 0.357026 -0.0736468 0.931187 -0.79501 -0.462203 0.392845 0.275435 0.892194 -0.357947 0.606592 -0.770802 0.194704 -0.905964 0.0312594 0.422199 0.935508 -0.32799 -0.131328 -0.250655 0.592814 -0.765339 0.283463 -0.598764 -0.749086 -0.666336 0.486104 0.565419 0.875642 -0.0592851 0.479309 -0.535325 0.00695277 -0.844618 0.00154046 -0.573054 -0.819516 0.945141 -0.326621 0.00521776 -0.202197 -0.679862 0.704914 0.36737 -0.746255 0.555106 -0.469894 0.576328 0.668615 -0.718085 -0.355211 0.598481 0.613012 0.637218 0.467087 -0.124705 -0.423815 0.897123 0.352758 0.899481 -0.257868 -0.250509 -0.917874 -0.307818 0.415298 -0.00535733 -0.90967 0.92971 -0.216162 0.298182 0.39625 0.226805 -0.889688 -0.216308 0.405518 0.888125 -0.377813 0.648543 -0.660794 -0.754106 -0.640073 -0.147072 -0.362815 0.192533 0.911755 0.61119 -0.470915 -0.63615 0.18344 0.982924 -0.0144713 -0.979856 0.175509 0.095281 0.718994 0.648325 0.250445 0.158531 -0.846474 -0.50828 -0.695868 -0.254738 0.671473 0.111342 0.622841 -0.774385 0.328383 -0.92309 -0.200174 -0.304085 -0.499655 -0.811096 0.730116 0.395563 0.55719 0.471741 -0.844332 -0.254096 0.78566 0.121934 0.606524 -0.246685 0.960716 -0.127165 -0.789578 0.190938 -0.583188 0.186301 -0.476967 -0.85895 0.753879 0.463043 0.466109 -0.887368 -0.416399 0.197964 0.119661 0.476148 -0.871186 0.0454775 -0.817773 -0.573741 -0.0389341 0.619166 0.784294 0.993702 0.106878 0.0336598 -0.0506029 0.86355 -0.501717 0.514087 -0.318105 0.79657 0.351447 0.883046 0.310989 -0.969104 0.0256638 0.245315 0.975327 0.213335 -0.0567858 0.539917 -0.479492 -0.691792 0.853668 -0.12545 -0.505483 0.166314 -0.978392 0.122836 -0.0142742 -0.138186 -0.990303 0.425076 -0.502231 -0.753043 0.772735 0.27276 0.573134 0.450277 -0.751255 -0.482562 -0.164125 0.070646 0.983907 0.81316 0.572598 0.104416 0.052744 -0.853675 -0.518129 0.0305726 0.957698 0.286147 -0.850274 0.507126 0.140915 -0.946627 -0.0804504 -0.312129 -0.188682 0.024614 0.98173 0.232689 -0.831181 0.504969 -0.579003 -0.451074 0.679182 0.110805 0.242016 0.963925 -0.370976 0.928177 -0.0294033 -0.445162 -0.815761 0.369277 -0.180166 0.757543 0.62743 0.568489 0.404458 0.716404 -0.951115 -0.267758 0.153901 -0.414435 0.845637 -0.336365 0.554177 0.0964858 -0.826788 0.842632 -0.0931018 0.53038 -0.343341 -0.823641 0.451368 0.266875 0.333078 -0.904343 0.685404 0.562169 -0.462803 0.799284 -0.52219 0.297426 -0.677655 0.551937 0.485951 0.542911 -0.546605 -0.63755 -0.667617 0.65921 -0.346021 0.825399 -0.563906 0.0269551 0.0904601 -0.0122871 -0.995824 -0.653499 -0.696668 0.295961 0.953114 -0.300788 0.0331611 0.0870887 -0.316492 -0.944589 0.306501 -0.882536 0.356634 -0.345809 0.446692 -0.825156 0.592814 0.615464 0.5194 0.347297 -0.107231 0.931604 -0.696048 -0.716071 0.0525337 -0.764563 0.249686 -0.594223 -0.872815 -0.239544 0.425222 -0.485414 -0.11141 -0.867157 0.956272 0.291863 0.0189601 0.328826 -0.146105 0.93302 -0.200761 -0.654058 0.729317 0.945399 0.268978 -0.184041 0.534632 0.278594 -0.797844 0.0671371 -0.872013 0.484857 0.0721453 -0.125588 -0.989456 -0.978302 -0.112028 -0.174283 0.310355 -0.363114 0.878538 0.927548 -0.322034 0.189602 -0.056095 -0.689832 -0.721793 -0.0106638 0.86806 0.496345 0.508382 0.15313 0.847407 0.589715 0.564463 0.577597 -0.947107 -0.166741 0.274201 0.173729 -0.334219 0.926345 0.631974 0.774981 -0.00378974 -0.121313 0.95842 -0.258292 -0.825243 -0.0710601 0.56029 0.621632 -0.494405 0.607567 0.651221 0.504336 0.567059 0.527474 0.82141 -0.216927 0.506302 -0.74899 -0.427403 0.551638 -0.376365 0.744342 -0.864047 -0.393569 -0.313887 -0.182486 -0.767648 0.614342 0.911893 -0.319381 0.257775 0.796424 0.599908 -0.0762791 -0.148841 0.00444265 0.988851 -0.675459 0.722314 0.148383 -0.847823 -0.00868984 -0.530208 -0.768095 -0.163745 0.619046 -0.443969 -0.769595 -0.458928 -0.446079 -0.722025 -0.52886 0.52789 -0.789721 -0.312526 -0.819234 0.30642 0.48473 0.973969 -0.0676974 0.216334 -0.0294194 0.898031 0.438948 -0.813672 -0.562307 -0.147474 -0.846361 0.532561 -0.00718853 -0.816942 -0.36547 -0.446136 -0.30698 -0.941833 0.1368 0.838773 -0.339912 -0.425346 0.656305 -0.753088 0.0460571 0.0198651 -0.365749 -0.930502 0.0406823 -0.958282 0.282913 0.104055 -0.0975703 -0.989774 -0.993316 -0.103349 -0.0513965 0.441496 -0.822395 0.358814 -0.234523 0.127796 0.963674 0.813566 0.559296 0.159055 -0.199425 0.694108 -0.691696 -0.468004 -0.515682 -0.717666 0.388853 0.87668 -0.283241 0.373721 0.903381 0.210322 0.289495 -0.728053 0.621395 -0.43678 0.899408 -0.0169859 -0.257088 0.276136 -0.926097 0.379038 -0.925378 -0.00251752 -0.53621 -0.717611 0.444425 0.678352 0.381656 -0.627835 -0.459712 0.236718 0.855938 -0.592535 -0.0102 0.80548 0.66031 -0.417201 0.624447 0.426172 0.234063 0.873837 -0.644467 -0.584 -0.493565 0.795143 -0.243346 -0.555455 0.285394 0.278091 0.917178 -0.116973 -0.534812 -0.836835 0.448665 -0.709481 -0.543449 -0.417504 -0.782035 0.462722 0.489912 -0.652782 0.577807 -0.647927 0.680688 -0.34184 -0.581112 -0.36308 0.728342 0.366845 -0.890874 0.267895 0.626568 0.717862 0.303458 -0.222393 0.286343 0.93196 0.627378 -0.308706 0.714911 0.738231 -0.278053 0.614574 -0.526203 0.0689198 0.847561 0.953219 0.112071 -0.280738 0.214987 0.390124 -0.895312 0.151022 0.984474 0.0894626 -0.330264 0.0278795 0.943477 -0.784627 0.433144 -0.443561 -0.167248 0.982163 -0.0859249 -0.766844 -0.596989 -0.235701 -0.811549 0.248309 0.528896 -0.207904 -0.925773 0.315786 0.112092 -0.547302 0.829395 -0.0124219 0.442636 0.896615 -0.76093 -0.194343 -0.619044 -0.124514 0.989938 0.0672216 0.284214 -0.182176 0.941294 0.217429 0.50568 -0.834873 0.585078 0.797951 -0.14477 -0.595999 0.772614 -0.218753 -0.291321 0.626992 0.722504 0.304678 -0.14562 0.941258 0.226007 0.921777 0.315035 0.0147405 -0.990375 -0.137621 -0.90582 0.403297 0.129774 0.709225 0.691209 -0.138676 0.996336 -0.0294387 0.0802946 -0.663603 -0.548762 -0.50842 -0.902908 0.126654 0.410751 0.522991 -0.401527 -0.751835 -0.863529 -0.315565 0.393365 0.909286 0.185877 -0.372355 0.787896 -0.376187 0.487547 -0.245914 -0.562641 0.789279 0.811786 -0.0338969 -0.58297 0.853788 0.36026 0.375843 -0.213822 -0.663386 -0.717077 -0.733059 -0.016153 -0.679973 0.335346 0.940918 0.0470739 0.726503 -0.313931 0.611262 0.419254 -0.878131 0.230462 0.921437 0.224662 -0.316988 -0.259689 0.938252 0.228571 0.0570227 -0.503918 -0.861867 -0.484379 0.205235 -0.850444 -0.758192 -0.376052 -0.532663 0.708607 0.487674 -0.509951 0.0708962 -0.863399 -0.499516 -0.149155 0.469196 -0.870407 0.222319 -0.659127 0.718419 -0.913882 -0.353923 -0.198893 0.72506 0.333555 0.60252 0.704297 0.558858 -0.437772 -0.420425 0.08696 -0.903151 0.171665 0.90002 -0.400619 0.908816 0.226145 -0.350588 0.73715 -0.673874 0.0500311 0.809094 0.257563 0.528231 -0.453287 -0.670248 0.587621 -0.746997 0.526662 -0.405737 0.283599 0.49215 -0.823019 0.970492 -0.0276036 -0.239548 -0.59626 -0.791893 -0.131835 -0.244682 -0.88064 -0.405713 -0.0821503 0.594672 -0.79976 -0.394767 -0.860361 0.322394 -0.98202 -0.188531 0.00961988 -0.787329 0.588537 -0.183676 -0.384289 -0.401505 -0.831333 -0.0413532 -0.828173 0.558945 -0.481382 -0.104854 0.870216 0.366554 -0.926726 0.0825669 0.667071 0.0823507 -0.740429 0.0537051 -0.706674 -0.705498 -0.613366 -0.789026 0.0349299 -0.576683 0.816798 0.0166897 -0.66065 -0.352419 0.662829 0.0417022 0.973051 0.226789 0.596397 0.275077 0.754084 0.258236 -0.664526 0.701227 -0.33816 -0.939603 -0.0528569 0.115626 -0.983179 -0.141387 0.952503 0.294975 -0.0756835 0.963474 -0.267739 -0.00577295 0.377049 0.922495 0.0826861 0.20718 6.45909e-05 0.978303 0.717853 0.0785501 -0.691749 0.672599 -0.229771 0.703432 0.0420623 0.180632 -0.982651 -0.473644 0.281928 0.834373 0.646934 0.68468 0.335693 -0.375605 -0.543686 0.750551 -0.910176 0.414212 -0.00287986 0.997121 -0.0576231 -0.0492921 -0.0298744 0.53364 0.845184 0.150816 0.988193 -0.0270165 -0.378003 -0.846422 -0.375079 0.18069 0.454553 -0.8722 -0.249577 -0.142378 0.957831 -0.000188247 -0.16786 -0.985811 -0.900636 -0.300605 -0.313833 0.139483 0.207089 -0.968328 -0.412855 0.908511 -0.0644787 -0.186196 0.524091 0.831059 0.942903 -0.327168 -0.0624097 0.168205 -0.378655 0.910125 -0.149205 0.660418 -0.735925 -0.834966 -0.415889 -0.360372 0.940766 0.132685 -0.312015 -0.0117462 -0.0147127 0.999823 -0.20737 0.853411 0.478212 0.10432 -0.179566 0.978199 0.0979098 -0.745794 0.658942 0.7257 0.036793 -0.687027 -0.182806 0.674727 -0.71507 -0.716187 -0.517906 -0.467814 0.936697 0.0896942 0.338457 0.321013 -0.205412 -0.924531 -0.380795 -0.214322 0.899478 0.149884 -0.0861613 0.984942 0.497889 -0.152552 -0.853718 0.302525 -0.943436 -0.135673 0.912694 0.228834 -0.338564 0.457939 0.651679 0.604653 0.829733 -0.164226 -0.533454 0.834787 0.51152 0.203663 0.00505447 0.675746 0.737117 0.776493 -0.50501 -0.37686 -0.95706 -0.280792 0.0720493 0.0761359 -0.996001 0.0467511 -0.0241624 0.246464 -0.968851 -0.941552 0.292971 -0.166275 -0.718901 -0.580742 -0.381996 0.212785 0.331041 0.919312 0.0133904 -0.993516 0.112899 0.896141 0.407214 0.176376 -0.299331 0.935319 -0.188625 0.884344 0.377268 0.274962 0.351518 -0.726291 -0.590709 0.753838 0.656665 -0.0228029 0.655656 -0.225862 0.720487 0.712265 -0.111649 0.692974 -0.454936 -0.873659 0.172489 -0.0981891 -0.166033 -0.98122 -0.666147 0.455327 0.590699 0.166948 -0.403576 0.899586 0.282559 -0.715157 0.639305 -0.641483 0.748194 0.169424 0.322828 0.288437 0.901435 -0.544171 -0.649318 0.531285 -0.728242 0.394622 -0.5603 -0.757934 0.319856 0.568532 0.852236 0.33682 -0.400308 -0.804199 0.593263 0.0360877 -0.531677 0.618377 -0.578731 0.782372 0.60249 0.1578 -0.755978 -0.132342 -0.64108 0.515999 0.628585 -0.581916 0.0230755 0.892598 -0.450263 -0.148405 -0.695381 -0.703151 -0.612978 -0.379524 0.692979 -0.209461 -0.888578 -0.408111 0.480377 -0.296893 -0.825284 0.262347 -0.569157 0.779253 0.689837 0.591686 -0.417172 0.869545 0.237714 -0.432878 0.522181 0.627763 0.57727 0.751895 -0.641105 0.153748 -0.0308424 0.200196 -0.97927 -0.508544 -0.570727 -0.644712 0.963241 -0.250305 0.0975381 -0.777198 0.236034 0.583311 -0.87346 0.259847 -0.411761 -0.0962625 0.023813 -0.995071 -0.171989 -0.974429 -0.144596 -0.76261 -0.604592 0.229986 0.491494 0.0760858 0.867551 0.948817 -0.28381 0.13856 -0.511309 0.140437 0.847845 0.202704 0.370173 -0.906578 -0.0319775 0.96918 -0.244271 -0.204813 0.272177 -0.940197 -0.172835 -0.697004 -0.695927 -0.942638 -0.331882 0.0358937 -0.932762 0.0626166 -0.355012 -0.98643 -0.0100949 -0.163875 0.0413095 0.25048 -0.96724 -0.41266 -0.383776 0.826092 0.601973 -0.797762 0.0347111 0.307 0.947205 -0.0924885 0.978587 -0.166321 0.121261 -0.300781 0.830694 0.468485 -0.300476 0.704478 0.642981 0.906446 0.376233 0.191844 -0.959314 0.189634 -0.209176 -0.394791 -0.392774 0.830583 0.183572 0.536336 -0.823799 -0.817647 -0.325091 -0.475153 0.787877 0.454535 -0.41551 -0.976815 0.132814 0.167905 -0.950863 0.123587 -0.283878 -0.292718 0.523623 0.800084 0.476966 -0.69759 -0.534669 0.899491 -0.323921 0.293243 0.978998 0.023856 -0.202472 0.0503946 -0.988838 -0.140215 0.0876368 -0.259191 -0.961842 0.220996 -0.116703 -0.968267 -0.000873543 0.0535162 0.998567 -0.98215 0.154699 0.106999 0.128859 0.803186 0.581625 0.217212 0.849919 -0.480059 0.898159 0.326675 0.294269 -0.553682 0.690424 0.465566 0.408481 -0.111896 -0.905882 -0.00312282 0.436246 -0.899822 -0.497035 0.521142 0.693806 -0.687952 0.64146 -0.339488 0.970894 0.223613 -0.0858069 -0.198581 -0.726494 -0.657854 0.874854 -0.116963 -0.470054 0.757949 -0.460866 0.461646 -0.622074 0.680847 -0.386616 -0.209559 -0.928576 -0.30632 0.294346 -0.731144 0.615459 -0.116905 -0.343903 0.9317 -0.0697115 -0.996534 -0.0453957 0.302226 -0.528458 0.793342 -0.968585 -0.243094 -0.0524224 0.723613 0.0950717 -0.683627 -0.163818 0.828287 0.535821 0.275334 -0.435064 -0.85727 0.103719 -0.933622 0.342916 -0.828434 0.273569 -0.48873 0.329173 0.851405 -0.408356 0.963565 0.264817 -0.0376134 -0.682807 -0.592721 -0.42715 -0.919974 -0.260703 -0.292713 0.0319694 -0.474691 -0.879572 -0.976025 -0.0318906 -0.21531 -0.94021 -0.33145 0.0783956 -0.892881 -0.259717 0.367845 -0.423819 0.902365 -0.0781943 0.526067 0.448353 -0.722657 0.627179 -0.241219 -0.740581 0.733527 -0.425615 0.529896 0.260923 -0.931031 -0.255149 -0.803522 -0.0725266 0.59084 -0.570246 0.815114 0.102024 0.300441 -0.50454 0.809428 -0.220027 0.784755 0.579437 -0.947354 0.192315 -0.256 0.940162 -0.168666 0.296052 -0.416374 0.155038 0.895877 -0.941892 0.277702 -0.188999 -0.469831 0.0890496 0.878253 0.317634 0.209988 0.92467 -0.505866 -0.862584 -0.00690219 0.67665 -0.707747 -0.203072 -0.372065 0.345778 0.861397 -0.507319 -0.757639 -0.410623 0.0948296 -0.993086 -0.0691865 -0.452559 0.253019 -0.855086 0.998372 0.053442 -0.0199421 0.694226 -0.203437 0.690409 -0.154312 0.812285 0.562478 -0.284922 -0.764032 -0.578857 0.295244 -0.951772 -0.0834325 -0.374862 -0.535564 0.756737 0.581795 0.813323 -0.00446613 -0.047686 -0.537276 -0.842057 0.444007 0.360066 0.820494 -0.589997 0.789599 -0.168631 0.904398 0.426672 0.00400117 0.460545 -0.789394 0.4059 -0.937541 -0.333133 0.100195 -0.311552 0.809766 -0.497207 -0.49174 0.262449 0.830249 0.635506 0.722465 0.272352 0.727738 -0.631519 -0.267545 0.541474 0.0820713 0.836702 -0.459325 -0.110854 -0.881324 0.263274 -0.811207 0.52214 -0.256916 0.617367 0.743541 -0.877174 0.225383 0.423991 0.284532 0.545305 0.78847 -0.0201533 -0.604326 0.796483 -0.969774 -0.236816 -0.0587977 0.936523 -0.187062 0.296533 0.6717 -0.476904 0.566905 -0.296351 -0.856761 0.422063 -0.332511 0.759616 -0.558946 0.325333 -0.776652 0.539416 -0.838981 -0.375129 -0.394194 0.899313 0.435997 -0.0338099 -0.690883 0.312696 0.651845 0.204299 -0.969525 0.135218 0.0596782 0.185972 -0.980741 -0.640645 0.75281 -0.151166 0.358872 -0.533379 0.765975 -0.252502 0.833555 0.491353 0.390746 -0.564234 -0.727295 0.627498 -0.413194 0.659937 -0.840681 -0.443256 0.311095 0.50898 -0.640471 0.575096 0.690136 -0.544876 -0.476258 0.695425 0.667548 -0.266016 0.664536 -0.677884 0.314427 0.598314 0.450155 -0.662858 -0.912403 -0.309369 0.267978 -0.606928 0.603156 -0.517535 0.463282 -0.0162658 0.886062 0.139783 -0.86867 0.475262 -0.323499 -0.852404 -0.4108 -0.58737 -0.438351 -0.680326 0.143602 0.982488 -0.118727 -0.440117 0.17472 -0.880778 0.397277 -0.760864 0.513086 0.945175 -0.227919 0.233876 0.717789 -0.151779 -0.679516 -0.708441 0.648448 0.278615 0.375292 -0.0396412 0.926059 0.960422 -0.240598 0.140362 -0.342658 0.823731 -0.451722 -0.893488 -0.406317 0.191271 0.862506 0.283296 0.419316 -0.594844 0.140115 -0.791535 0.340714 -0.206028 -0.917315 0.271882 -0.530029 0.803212 0.0417253 -0.522855 0.8514 -0.725387 -0.687246 0.0388113 0.481692 0.808964 0.336973 0.594892 0.609446 -0.524098 -0.0726696 0.451381 0.889367 -0.72517 0.636347 0.26304 0.23625 -0.885884 -0.399244 -0.711937 -0.0471079 -0.700662 -0.86776 -0.399051 -0.296227 0.335169 0.749602 0.570753 -0.907142 0.419638 0.0315955 -0.719509 -0.11664 0.684618 0.243922 0.538373 -0.806633 -0.742279 0.601994 -0.294324 -0.7802 -0.565178 0.26807 0.586206 0.651666 0.481347 0.836489 0.456484 0.303163 -0.540417 0.836483 -0.0907997 -0.0906683 0.981487 0.168709 -0.568613 0.560406 -0.602183 0.359687 0.92196 0.143575 -0.585222 0.774396 0.240469 0.910525 0.0684662 -0.407746 -0.778651 -0.376293 -0.502103 -0.236388 0.694759 0.679287 0.485378 0.532143 0.693709 -0.513261 0.781524 -0.35466 -0.284359 -0.229643 -0.930808 -0.108065 -0.97404 -0.198917 -0.0211693 0.769226 -0.638626 -0.717048 0.324527 -0.616867 -0.697143 -0.696448 0.170152 0.5557 0.228847 -0.799267 -0.859437 0.364341 0.358642 -0.316459 -0.269453 0.909532 0.542977 -0.633794 0.550891 0.708201 -0.422573 0.565582 0.0953242 0.94469 0.313