# vtk DataFile Version 4.0
Generated by libgran
ASCII
DATASET POLYDATA
POINTS 1686 FLOAT
-32.9525 2.20572 6.51385 -31.5625 1.35626 7.54675 -33.8243 2.36524 4.96496 -32.6143 3.22759 5.96176 -33.8246 -0.957071 7.81616 -34.4279 2.97188 3.98812 -30.8593 0.162635 12.2036 -30.542 -1.52302 12.6218 -31.5407 0.824984 11.2735 -31.6531 -0.230946 9.83332 -31.2288 1.45203 9.88345 -30.737 1.63565 8.68213 -29.8285 -3.19163 15.0478 -29.0996 -2.74204 14.0306 -29.228 -1.6045 14.0956 -28.7222 0.0247843 13.691 -28.0661 0.312347 14.3887 -28.1902 0.946239 13.0176 -31.5482 -3.92561 13.1624 -33.3552 -4.81811 14.7165 -32.392 -4.16695 14.0714 -32.4075 -4.60359 15.7648 -34.1926 -5.31688 13.8049 -31.6429 -4.92986 16.6465 -31.9874 -3.65448 17.272 -32.2803 -3.27219 18.378 -30.9889 -3.15133 18.6371 -30.4484 -4.62712 21.3121 -31.6324 -3.86964 21.9545 -30.8855 -3.76841 20.2624 -30.1812 -5.81459 21.8473 -31.0179 -7.40901 21.6548 -31.3676 -3.80539 23.6162 -30.1283 -4.12781 18.9313 -30.3649 -8.12473 19.6973 -30.9662 -9.41457 19.5774 -29.0548 -8.32188 19.5845 -27.9505 -8.27103 19.4968 -27.6494 -6.87316 20.6064 -28.4161 -6.24892 22.0438 -27.5414 -5.40042 20.588 -30.0699 -10.3198 20.6517 -21.6905 -12.4455 23.2397 -22.6236 -12.0624 22.3734 -23.9189 -12.9548 22.4289 -21.2277 -11.4879 24.9221 -22.5981 -11.3805 25.3826 -25.3716 -13.8183 22.6805 -27.2107 -11.6851 19.7949 -26.2071 -11.2882 18.8965 -26.7497 -12.7439 20.4543 -28.2495 -12.4011 20.8049 -26.0062 -13.621 21.5854 -29.1052 -11.2806 21.4613 -25.3205 -12.706 18.0965 -25.3453 -14.1047 17.1348 -24.544 -16.1934 18.08 -24.2459 -16.2507 16.7853 -25.4009 -15.3959 16.788 -23.1868 -15.5301 18.9205 -22.4231 -15.9477 16.3182 -21.6106 -15.3644 19.3339 -21.6405 -16.3716 19.8518 -21.7365 -14.9561 12.322 -22.7973 -15.3783 12.1642 -22.9577 -13.7547 12.5659 -20.4634 -15.0134 12.7015 -20.4475 -16.0298 11.3941 -20.2804 -14.4434 14.4672 -21.0129 -14.8768 15.8548 -36.601 16.309 3.58502 -37.225 15.7814 1.77677 -37.235 14.7927 1.62748 -35.3935 16.8124 4.49771 -34.6642 16.6666 5.30459 -33.7256 16.9507 5.10922 -33.9329 16.4565 5.95345 -40.4498 15.3413 1.86344 -41.3793 16.0754 1.26072 -39.5052 16.6295 1.20444 -39.6193 14.9612 2.49711 -40.6984 13.5844 2.14418 -41.4235 12.5838 2.69053 -42.0687 11.5278 3.5194 -46.3646 12.2261 3.6954 -46.7279 11.2699 3.11965 -47.1455 13.5198 2.92399 -45.5271 13.7826 4.62844 -43.0222 11.0489 3.60617 -42.2581 9.95595 2.69881 -42.8263 10.1756 1.52082 -42.6581 9.19709 0.954515 -42.3138 8.47886 2.32152 -42.8952 11.6115 0.505504 -44.2606 10.68 1.22965 -43.2202 11.9496 -0.748907 -42.5154 7.02507 1.95693 -42.5503 7.07341 3.57638 -44.9448 8.33776 -4.9679 -44.305 8.01606 -6.08826 -45.2805 6.59426 -5.59447 -45.7326 9.83687 -6.55456 -46.5662 9.27767 -6.92341 -46.5107 10.1179 -5.22227 -47.8312 8.90208 -7.36509 -47.3443 9.5587 -5.59112 -46.2208 5.12874 -5.11311 -45.7696 10.4939 -3.2171 -46.6633 10.4624 -4.21554 -45.6637 10.5186 -1.99476 -45.8349 10.3848 -0.891494 -46.442 10.1014 0.00659547 -45.4825 9.9496 0.446529 -47.5025 11.4741 -0.0758919 -45.5731 11.289 1.54662 -44.264 4.48981 -7.99506 -43.3032 4.58372 -9.40654 -43.507 3.45541 -7.80839 -44.448 5.74628 -7.60061 -44.8519 6.97151 -7.97468 -46.4486 6.92973 -7.56234 -43.8447 1.93227 -7.14882 -47.6219 6.4945 -7.85289 -45.9175 1.71134 -3.86792 -45.2937 2.88538 -4.12331 -46.4689 3.56293 -4.32902 -44.1401 3.99085 -4.5943 -25.1093 13.6814 19.9075 -25.6605 14.4643 20.8301 -24.2627 14.9866 20.2477 -26.3824 12.736 18.9251 -28.0869 12.7093 20.4545 -28.4783 10.3273 18.3534 -29.0374 12.0059 17.7458 -28.9831 9.1785 18.0958 -28.2369 8.44432 18.3792 -28.3853 12.1683 17.0052 -30.4696 8.43137 18.5164 -29.8588 9.30484 16.9217 -30.606 7.84226 20.0915 -26.0473 4.95472 12.6618 -25.8163 3.86962 12.4127 -26.405 6.03738 13.3459 -27.9188 5.28763 13.1684 -27.2155 2.99781 13.1178 -26.9707 2.77203 11.6529 -27.5503 2.24271 14.4512 -26.6176 2.0429 10.4713 -26.2874 2.26592 9.47384 -28.9791 9.19415 15.6866 -30.2467 9.13032 15.29 -27.8799 9.54212 14.8984 -30.3195 7.76946 14.1398 -31.4963 9.12568 14.331 -30.8147 6.53008 13.9383 -29.4188 6.11891 13.5417 -33.6999 7.32468 5.55765 -34.8873 6.88555 5.15114 -33.0361 8.1827 6.02863 -32.6126 6.55552 6.62323 -36.4853 6.45764 6.15446 -34.4349 4.80519 6.90584 -37.672 7.08023 5.93284 -37.7986 7.0693 4.42339 -40.9675 6.08218 5.32811 -39.4585 5.49053 5.09225 -42.1868 6.58589 5.17155 -42.9145 5.96865 3.60177 -38.5361 6.79322 3.74462 -38.6791 4.77276 6.2234 -32.1608 6.35349 11.7887 -31.7335 8.82321 11.1471 -32.8548 8.88076 12.4906 -32.9137 9.05758 13.5821 -33.5967 7.93608 13.9436 -31.9866 10.601 13.892 -33.8849 6.52903 14.4183 -34.4935 3.99021 9.46482 -33.8844 3.81172 10.6332 -33.8203 4.26573 7.61649 -33.1084 4.03007 11.7743 -25.6753 23.0529 29.0696 -26.0759 21.7923 29.6321 -25.6902 22.665 30.6603 -25.4198 23.1716 27.7701 -25.8384 24.656 28.322 -26.621 25.8265 28.3403 -22.8784 23.3202 28.9957 -22.5728 23.6644 31.2955 -23.4374 24.3168 32.4351 -22.2862 23.3824 30.028 -21.8355 23.0351 29.0743 -23.6606 25.1671 29.4729 -23.4202 24.5104 33.6569 -25.4727 27.4413 33.6932 -25.1517 28.4467 34.505 -26.175 29.2569 33.7278 -25.7862 26.7566 32.8796 -24.815 26.0655 32.648 -23.6091 29.071 35.5508 -25.5175 25.1534 32.0148 -20.9275 26.0082 36.1213 -21.0131 24.7425 36.5199 -20.828 27.092 35.9501 -19.8701 27.8578 36.7271 -20.8865 28.5939 36.1149 -18.3823 27.6778 37.5996 -18.5075 28.8407 37.0193 -21.8799 29.4833 35.771 -19.9266 29.6026 35.4921 -27.7725 23.6517 33.8284 -28.2946 25.8981 34.1123 -30.3572 24.8552 36.2193 -30.2062 23.7002 35.4035 -29.7775 22.9798 33.696 -26.461 23.424 33.7395 -31.4547 20.6377 31.8484 -32.0805 21.5286 33.269 -30.1881 20.4274 31.4981 -29.3197 20.1183 31.1104 -32.2199 22.6115 34.4922 -33.1042 22.1662 34.3523 -34.8926 22.6075 34.135 -35.6319 22.453 32.8353 -35.2156 21.5703 32.4054 -36.6356 23.7821 31.9659 -37.1321 23.6558 33.6092 -37.5885 24.3018 32.5776 -36.2979 21.7341 34.211 -37.2117 24.7289 35.1514 -37.3825 25.662 33.2055 -41.15 25.3325 36.439 -40.589 26.4135 35.9054 -39.6245 25.6279 35.4665 -38.2234 25.5971 35.1926 -41.0907 25.5357 34.2479 -37.1049 25.8042 34.8259 -33.9081 7.02613 23.5721 -33.7024 5.85386 24.1639 -35.2155 6.80972 24.5732 -32.7327 7.25772 22.4387 -33.9936 8.34052 22.9308 -31.3221 6.34082 21.6339 -30.4309 5.94522 20.5574 -30.9932 5.27296 19.8217 -29.4366 5.80619 19.5059 -31.5479 4.3018 19.1025 -31.1942 3.6115 20.3109 -27.5573 4.64181 18.3052 -27.3873 5.74119 18.0928 -38.6938 7.05992 24.3652 -38.9193 6.10785 25.2656 -40.3867 5.61013 24.7723 -39.0656 8.38162 24.9587 -40.4302 7.99356 24.5707 -37.2348 5.24065 21.8677 -37.4348 6.62919 22.8728 -36.4057 4.84659 22.515 -35.6011 4.45248 22.9595 -34.2347 5.21212 21.9544 -34.5359 3.88521 23.1104 -29.5648 15.5331 23.4004 -30.5988 15.4553 24.2329 -29.2788 15.2289 25.252 -28.5489 15.207 22.5631 -29.5179 14.7915 21.6565 -31.617 16.1684 24.5616 -31.1675 17.2122 25.905 -30.1016 17.9683 27.3345 -32.1992 9.66232 21.2724 -31.0548 9.58637 21.9003 -30.7302 10.7712 21.0079 -33.3285 10.3538 21.3959 -33.9151 9.19311 22.1267 -29.4933 11.1517 21.5912 -29.5669 12.1489 21.5987 -29.007 19.3738 27.6886 -29.0066 17.7995 27.5085 -29.8055 19.5942 29.8615 -31.1979 19.5415 28.7739 -28.6435 16.2993 27.7483 -27.8821 15.2683 28.6602 -30.9225 19.6718 26.4058 -31.8863 19.1039 27.4694 -30.8109 20.9966 26.4268 -32.3202 21.6913 25.9635 -33.9389 21.5246 25.9943 -33.7965 22.707 24.1812 -6.42695 25.0514 41.3491 -5.47085 24.9301 41.6158 -7.71484 24.72 41.2641 -5.94173 24.2124 41.1027 -8.51849 26.0264 42.0836 -9.37519 24.5928 41.5337 -9.33786 25.6934 41.617 -9.32451 26.6135 42.0084 -5.36335 23.1807 41.5382 -4.15418 23.6733 41.0032 -5.14171 21.4776 41.8184 -10.1788 23.6576 40.4692 -6.85717 20.0162 43.1122 -6.66754 20.8104 41.8092 -7.91433 19.0599 43.3492 -8.56192 18.2021 43.6665 -4.81321 20.8724 42.8741 -1.53307 24.7916 42.2404 -2.47759 24.9565 41.319 -2.853 23.7757 41.3503 -0.198225 26.1042 42.1036 -2.13177 26.4973 40.753 -3.1135 22.5435 41.3071 -2.0438 28.3078 40.8303 0.936639 30.2929 41.3817 1.40492 29.1036 42.4148 -1.77111 29.8757 40.2782 2.44807 28.4323 41.893 -2.88401 29.5704 41.5361 -21.3396 33.3786 42.6464 -20.0655 33.0166 42.5289 -21.5688 33.7014 44.302 -22.5599 32.7517 42.96 -19.0282 32.3489 45.26 -19.6107 32.9552 46.6719 -18.2898 31.5116 43.9342 -15.8103 30.2346 42.4417 -16.7113 30.2813 43.4183 -14.9713 28.8159 42.5877 -17.7846 30.2603 43.5061 -17.8257 29.2799 44.6359 -16.9029 28.6622 44.2409 -13.882 28.8569 43.5037 -14.7789 28.5225 44.1246 -17.8731 28.7097 46.1222 -12.1463 25.425 44.9932 -13.3999 25.8533 45.1295 -11.8625 25.7387 44.0871 -11.1748 25.4669 44.7602 -13.7506 26.9854 45.9802 -14.3447 26.118 46.8581 -14.2729 28.4197 45.5257 -10.998 26.7615 43.6921 -15.8094 28.322 44.8012 -10.3874 28.3936 41.3146 -9.85792 27.1719 41.1904 -11.1539 28.2332 42.66 -11.2237 29.2307 42.6519 -11.9496 28.5268 41.1549 -11.1749 28.74 43.5218 -20.4002 36.2123 39.5219 -20.3608 36.7564 37.6958 -19.6746 36.97 40.3397 -19.8135 38.5111 39.8874 -19.5564 38.4446 40.8515 -20.2088 39.142 40.555 -20.35 40.1631 39.8656 -19.9992 36.2219 36.7913 -21.054 37.5425 36.8598 -19.3049 39.8259 41.3827 -21.1501 42.7713 43.3276 -22.7044 42.0389 42.68 -23.0735 42.7472 43.5287 -22.6622 40.997 41.4868 -24.1224 41.0084 42.5398 -21.143 40.8614 40.4693 -19.4461 40.8469 40.6933 -23.6186 44.8194 44.3519 -22.5644 45.3541 42.9792 -23.0526 44.8095 45.5551 -23.9215 43.5557 44.5279 -22.4127 45.2218 41.729 -21.5033 46.3507 42.4253 -22.769 42.7654 47.2557 -23.6498 42.344 50.4748 -23.2628 43.4429 49.834 -24.5494 44.0481 50.2584 -22.2011 43.1796 48.7256 -20.9304 44.3949 48.3885 -25.6163 44.4389 49.8664 -16.7997 29.2242 40.0019 -16.0068 28.7416 39.0499 -16.1854 30.04 38.5559 -15.7785 27.236 39.4144 -17.2216 30.0846 37.4554 -14.9086 27.0042 40.8065 -13.4513 27.8508 40.9678 -18.5429 29.7629 36.3524 -18.7454 30.6504 34.9714 -18.0257 29.9659 35.0876 -17.8255 30.8278 34.6216 -19.158 32.0071 36.4203 -18.8312 31.6751 37.5714 -21.7945 30.6236 37.6331 -22.2112 31.5512 36.3184 -22.6663 34.9407 41.2984 -24.193 34.0972 41.389 -21.8623 34.0386 40.7434 -22.0868 33.6714 39.5366 -25.1005 32.4
[...]
POINT_DATA 1686
FIELD FieldData 1
normals 3 1686 double
-0.513717 0.51559 -0.685756 0.876367 -0.333871 0.347147 -0.35807 -0.356066 -0.863135 0.851947 0.506278 0.133674 -0.855062 -0.476079 -0.205469 -0.245496 0.962706 -0.113701 -0.552502 0.832191 0.0469049 -0.235183 -0.853463 0.46507 -0.128909 -0.169842 -0.977004 0.0165655 -0.886088 -0.46322 0.440814 0.796891 -0.413095 0.0509489 -0.61327 -0.788228 -0.191871 -0.927161 0.321805 0.537027 -0.47757 -0.695362 0.408651 0.65997 -0.630431 0.0970888 0.969315 0.225839 -0.559029 0.681752 -0.471912 0.434977 -0.0478602 -0.899169 -0.876599 0.445203 0.182669 -0.996065 0.035385 -0.0812588 -0.0328061 0.686545 -0.726347 -0.0482945 0.249909 0.967064 0.158735 -0.534149 -0.830354 0.81286 -0.576177 -0.0853138 0.468333 0.699198 0.540173 -0.761195 -0.316904 0.565822 0.530183 -0.196044 0.824908 0.863885 -0.437677 0.249283 -0.320109 0.319798 0.891773 0.426758 0.421033 -0.80038 -0.596662 -0.749799 0.285999 -0.240109 -0.844615 -0.478511 0.584834 -0.25555 0.769847 0.330486 -0.78044 -0.530747 0.775514 0.382451 0.502304 0.17418 -0.907393 0.382491 0.5346 -0.579607 -0.615027 0.569612 0.630457 0.527321 -0.26849 0.767413 0.582229 -0.4982 -0.143174 0.855159 0.37655 0.705326 -0.600604 0.722096 0.00217219 0.691789 -0.312594 0.906858 -0.282656 -0.620446 -0.52374 -0.583732 -0.67485 -0.368712 0.639241 0.82256 0.567686 0.0335694 -0.547809 0.675115 0.49409 -0.77783 -0.494721 -0.387596 -0.425791 -0.873541 0.235855 0.577795 -0.476631 -0.662553 0.886763 -0.18517 0.423513 -0.613085 0.157584 0.774141 -0.143224 -0.691986 0.707561 -0.2426 0.962951 -0.11777 0.308826 -0.941128 -0.137495 -0.33366 -0.457623 -0.824167 0.57885 0.0360177 0.814638 0.876928 -0.0212833 -0.480151 -0.278058 0.833535 -0.477392 0.778323 0.627333 0.025823 0.945851 0.324337 0.0130752 0.797928 -0.461668 0.387522 0.827901 0.545495 -0.130439 0.821879 -0.314186 -0.475187 -0.238929 -0.736391 -0.632962 -0.399304 0.887159 -0.231311 0.451193 0.256823 0.854674 0.467134 -0.7595 -0.452709 -0.268196 0.313182 0.911037 -0.464345 -0.746545 0.476502 0.270912 0.155039 0.950037 -0.353123 -0.372528 -0.858212 -0.343119 0.616196 -0.708923 0.936595 0.348419 -0.0373464 -0.207374 -0.494239 0.84423 0.73131 -0.210156 0.64886 0.938684 0.284083 -0.195371 -0.06656 -0.817676 0.571818 -0.996023 -0.0835651 -0.0309024 0.87806 0.470542 -0.0871853 0.897074 0.43753 0.0618482 -0.182018 -0.939224 -0.291082 -0.543076 -0.0613469 0.837439 -0.102138 -0.994733 -0.00857622 -0.503033 0.860007 0.0857108 -0.866378 -0.096186 -0.490039 -0.27796 0.433694 -0.857116 -0.472163 0.881221 0.0226119 0.851342 -0.515874 -0.0953449 0.0872575 0.577081 0.812012 -0.480943 0.796717 -0.365973 -0.312745 -0.181773 -0.932282 0.0316068 -0.900007 0.434728 0.412058 0.639185 -0.649346 -0.953384 -0.292342 0.0748033 -0.737068 -0.301045 -0.605065 -0.233271 -0.553781 -0.799319 -0.268164 -0.505449 0.820128 -0.136064 0.87781 0.459278 0.503691 0.556118 -0.661081 -0.471799 -0.86569 -0.16729 -0.0927379 0.682663 0.724825 -0.926305 0.123459 0.355972 -0.685328 -0.401631 0.607469 -0.338667 -0.49905 -0.797655 0.148243 0.157572 0.976317 -0.468461 -0.599827 0.648654 0.360884 -0.714672 0.599172 -0.532754 -0.746166 -0.399261 -0.254963 0.739359 0.623171 0.083816 -0.873202 0.480096 -0.690949 0.589805 0.417993 0.268513 0.438019 0.857927 -0.369541 0.782917 -0.500481 -0.359069 0.901348 0.24216 -0.686844 0.415948 0.596014 0.273982 0.509856 -0.815463 0.0702183 -0.61845 0.78268 0.502888 0.840521 -0.201565 -0.906776 0.384707 -0.172506 -0.689977 -0.42648 0.584847 -0.407899 -0.904689 -0.123108 -0.483323 -0.00875443 -0.875399 -0.331138 0.885605 -0.325656 0.954916 0.28844 0.0702641 -0.220293 0.965985 -0.135438 0.198762 0.817032 -0.541251 -0.398329 -0.515368 -0.758769 -0.949509 0.267543 0.163867 0.448288 0.789835 -0.418566 -0.874729 -0.42997 -0.223552 -0.785276 -0.146945 -0.601456 0.431859 -0.901893 -0.00931398 -0.127202 0.776735 -0.616849 -0.936695 -0.24689 -0.24829 -0.190423 -0.981071 0.0351825 -0.779301 0.614313 0.123734 -0.549789 -0.50024 0.668949 0.0610555 0.373226 -0.925729 0.413461 -0.0888754 0.906174 -0.895845 0.339061 0.287228 -0.664811 -0.746038 0.0381393 0.538134 0.743593 0.396839 -0.975622 -0.00614816 0.219373 -0.734426 -0.125775 0.666933 -0.489617 -0.35156 -0.797923 0.399673 -0.629329 0.666488 0.842725 -0.377565 -0.383744 -0.512521 0.600589 -0.61369 0.818588 -0.483909 -0.309428 -0.448942 -0.547745 -0.705993 0.280643 0.831875 -0.478773 0.376163 -0.813115 -0.444235 -0.80064 0.543108 -0.253001 -0.871426 -0.426256 0.242738 0.524439 -0.837427 -0.153882 0.445964 -0.0211463 0.894801 -0.741424 -0.460282 0.488293 0.21782 0.879166 -0.423819 0.641328 -0.748018 0.170784 -0.85656 0.0323745 0.515031 0.936694 -0.286311 -0.201568 -0.330132 0.590215 -0.736653 0.203507 -0.601142 -0.772796 -0.587688 0.521642 0.618476 0.92125 -0.0700016 0.38262 -0.631661 -0.0179317 -0.775037 -0.0960545 -0.599307 -0.794735 0.941007 -0.325061 -0.0940269 -0.141787 -0.647768 0.748527 0.429402 -0.775293 0.463179 -0.445565 0.49193 0.747981 -0.675763 -0.434379 0.595532 0.616841 0.611205 0.495918 -0.0661523 -0.510295 0.857452 0.310317 0.932255 -0.186022 -0.222052 -0.896762 -0.382767 0.350998 0.0223746 -0.936109 0.960034 -0.156111 0.232302 0.322146 0.253151 -0.912215 -0.183951 0.374463 0.908812 -0.359301 0.624009 -0.693913 -0.759919 -0.636597 -0.131404 -0.374226 0.236048 0.896792 0.614754 -0.505299 -0.605599 0.196246 0.979082 -0.0537252 -0.978868 0.191363 0.0720964 0.723347 0.649718 0.233744 0.155387 -0.869457 -0.468934 -0.709215 -0.217088 0.670736 0.131145 0.587493 -0.798532 0.319527 -0.934785 -0.155174 -0.298032 -0.530396 -0.793635 0.726371 0.410732 0.551076 0.46453 -0.860208 -0.210366 0.785597 0.145132 0.601477 -0.237712 0.955308 -0.175725 -0.778033 0.175517 -0.603207 0.193163 -0.515598 -0.834774 0.756962 0.479148 0.444325 -0.895614 -0.396569 0.201517 0.136923 0.404528 -0.904218 0.051312 -0.861193 -0.505682 -0.0373868 0.679237 0.732966 0.995272 0.0865525 0.0440764 -0.02114 0.822668 -0.568129 0.492545 -0.26655 0.828463 0.367296 0.89641 0.248077 -0.972257 0.0667735 0.22418 0.981024 0.186012 -0.0546955 0.544168 -0.515422 -0.661983 0.859589 -0.157492 -0.48611 0.152248 -0.97402 0.167645 -0.00126503 -0.180953 -0.983491 0.429984 -0.539444 -0.723957 0.76736 0.287691 0.573055 0.447702 -0.776581 -0.443266 -0.178109 0.114359 0.977343 0.818917 0.566319 0.0930479 0.0494485 -0.875449 -0.480775 0.0387584 0.968521 0.245898 -0.845604 0.523183 0.105986 -0.942751 -0.0818432 -0.323298 -0.203463 0.0726605 0.976383 0.212826 -0.810003 0.546443 -0.595888 -0.411139 0.689842 0.0993725 0.284877 0.953399 -0.357035 0.930816 -0.0781456 -0.462549 -0.791595 0.399282 -0.178887 0.7882 0.588846 0.563126 0.429386 0.706057 -0.957318 -0.246377 0.151128 -0.396341 0.834609 -0.382547 0.568176 0.0490957 -0.821441 0.8329 -0.0799704 0.547616 -0.36269 -0.796228 0.484229 0.285606 0.287128 -0.914323 0.632134 0.657552 -0.409917 0.837847 -0.514719 0.181873 -0.675259 0.441144 0.591115 0.543252 -0.42596 -0.723488 -0.717633 0.656832 -0.231461 0.867387 -0.490945 -0.0813167 0.0237952 0.0953503 -0.995159 -0.586065 -0.767619 0.259401 0.970505 -0.234387 -0.0564222 0.0313671 -0.203538 -0.978564 0.385029 -0.893838 0.229798 -0.427804 0.504605 -0.749905 0.597842 0.594767 0.537436 0.421631 -0.189762 0.886689 -0.647071 -0.762306 0.0137128 -0.820323 0.264582 -0.507016 -0.823074 -0.344494 0.451522 -0.541511 -0.0435656 -0.839564 0.936261 0.351138 -0.0108124 0.405605 -0.229737 0.884706 -0.107091 -0.745199 0.658187 0.911615 0.351096 -0.213751 0.454827 0.408544 -0.791343 0.153652 -0.918372 0.364669 0.0598095 -0.0790221 -0.995077 -0.974153 -0.156783 -0.162619 0.345813 -0.383253 0.856464 0.956066 -0.247105 0.157726 -0.0129162 -0.662594 -0.748867 -0.044103 0.869873 0.4913 0.493594 0.173849 0.852139 0.57237 0.582339 0.577299 -0.919693 -0.273442 0.281772 0.224704 -0.349391 0.909634 0.549347 0.835416 0.0172743 -0.20953 0.964904 -0.158297 -0.796147 -0.195763 0.572562 0.687508 -0.454934 0.566011 0.613964 0.54233 0.573522 0.522162 0.823146 -0.22311 0.52264 -0.751169 -0.403227 0.535195 -0.351348 0.768193 -0.857196 -0.404005 -0.319367 -0.159589 -0.749062 0.642991 0.920974 -0.281948 0.26891 0.794963 0.601551 -0.0785553 -0.168769 0.0336556 0.985081 -0.683329 0.723288 0.0995822 -0.825997 -0.0285499 -0.562951 -0.792661 -0.138226 0.593787 -0.428977 -0.786306 -0.444637 -0.470881 -0.717643 -0.513089 0.485213 -0.838982 -0.246329 -0.817007 0.386246 0.428151 0.956094 -0.12134 0.26676 0.0133542 0.920149 0.391342 -0.843346 -0.513431 -0.158607 -0.806019 0.587088 -0.0752384 -0.819374 -0.333061 -0.46658 -0.377708 -0.910415 0.168766 0.831458 -0.417754 -0.366277 0.599345 -0.792697 0.111431 0.0397519 -0.421833 -0.905802 -0.0609153 -0.944512 0.322779 0.128712 -0.15029 -0.980228 -0.996247 -0.0117305 -0.0857564 0.348664 -0.846161 0.403045 -0.270839 0.187538 0.94418 0.850209 0.495905 0.176699 -0.0943068 0.660811 -0.744604 -0.469723 -0.520071 -0.713363 0.484637 0.816631 -0.313435 0.440126 0.879999 0.178578 0.209224 -0.712118 0.670159 -0.352158 0.930441 -0.101313 -0.174609 0.236584 -0.955793 0.293675 -0.952768 0.0773767 -0.624841 -0.637486 0.450761 0.749474 0.281508 -0.5992 -0.488055 0.332166 0.807136 -0.617049 0.0151017 0.78678 0.657011 -0.346871 0.669341 0.387805 0.307735 0.868853 -0.603279 -0.641993 -0.473179 0.820273 -0.28771 -0.494343 0.237803 0.318599 0.917576 -0.0818883 -0.549531 -0.831451 0.414949 -0.769509 -0.485461 -0.486091 -0.722808 0.491186 0.423992 -0.649195 0.631487 -0.587159 0.701804 -0.403381 -0.628314 -0.27861 0.72636 0.294531 -0.896333 0.331419 0.665377 0.690179 0.284475 -0.231583 0.355761 0.90543 0.580939 -0.291563 0.759935 0.687717 -0.271811 0.673174 -0.565868 0.156443 0.809518 0.971592 0.0418608 -0.23293 0.283874 0.313672 -0.906105 0.215232 0.975693 0.0412046 -0.378907 0.108289 0.919077 -0.737578 0.458561 -0.495682 -0.107083 0.980954 -0.162056 -0.798919 -0.556197 -0.228852 -0.815405 0.330192 0.475487 -0.28596 -0.891507 0.351343 0.0488621 -0.490683 0.869967 -0.0209536 0.506844 0.861783 -0.746809 -0.197078 -0.635167 -0.0698157 0.997526 -0.00818312 0.211933 -0.0860427 0.973489 0.25133 0.458077 -0.852642 0.513636 0.843755 -0.15574 -0.652481 0.697394 -0.296497 -0.395362 0.630882 0.667591 0.257118 -0.0665112 0.964088 0.115962 0.954514 0.274694 0.110307 -0.992543 -0.0518669 -0.944522 0.328023 0.0166912 0.646833 0.750334 -0.136404 0.98631 0.0822567 0.142924 -0.568012 -0.650156 -0.504638 -0.937141 0.0582058 0.344062 0.610261 -0.391741 -0.688564 -0.850023 -0.380351 0.364409 0.908927 0.25616 -0.328988 0.78799 -0.270689 0.552992 -0.213781 -0.513441 0.831069 0.840363 0.0212661 -0.541607 0.779749 0.503538 0.372077 -0.0891634 -0.750272 -0.65509 -0.688622 -0.153559 -0.708674 0.220723 0.975259 -0.0123017 0.728752 -0.158695 0.666136 0.513743 -0.789379 0.336078 0.900731 0.309546 -0.304738 -0.385934 0.914727 0.119706 0.160912 -0.572855 -0.803707 -0.463719 0.0580252 -0.88408 -0.680918 -0.523892 -0.511749 0.731894 0.423674 -0.533696 0.0609649 -0.906258 -0.418306 -0.117602 0.39213 -0.912362 0.167364 -0.599406 0.782753 -0.918624 -0.347496 -0.188084 0.702468 0.367659 0.609398 0.754893 0.478907 -0.44809 -0.402684 0.0257161 -0.914978 0.200182 0.861854 -0.465978 0.919879 0.177352 -0.349813 0.719697 -0.684501 0.116166 0.805987 0.279649 0.52171 -0.47928 -0.611675 0.6294 -0.726753 0.509271 -0.460948 0.310008 0.418325 -0.853756 0.98261 0.00980264 -0.185423 -0.544095 -0.833647 -0.0948309 -0.178651 -0.911894 -0.369503 -0.0458179 0.544707 -0.837374 -0.363363 -0.853873 0.37265 -0.968234 -0.249055 -0.0222149 -0.800253 0.528741 -0.282893 -0.263796 -0.4783 -0.83764 -0.0824161 -0.78555 0.613285 -0.52109 -0.0346121 0.8528 0.343922 -0.924583 0.163899 0.682513 0.00852561 -0.730823 0.0509378 -0.762076 -0.645481 -0.631576 -0.770603 0.0853416 -0.537461 0.842969 -0.0232205 -0.635387 -0.2615 0.726568 0.105252 0.988821 0.105618 0.656728 0.296692 0.693313 0.266043 -0.622855 0.735712 -0.390684 -0.919548 0.0424 0.141596 -0.973734 -0.178305 0.943959 0.237128 -0.229591 0.95464 -0.270074 0.125392 0.354772 0.914816 0.193 0.0558165 -0.0580513 0.996752 0.816731 0.127873 -0.562671 0.5559 -0.284644 0.780994 0.191285 0.237413 -0.952389 -0.597579 0.234475 0.76676 0.580222 0.655156 0.483851 -0.218102 -0.430588 0.8758 -0.935242 0.3473 0.0685874 0.98289 0.0111436 -0.183857 0.0380305 0.662386 0.748197 0.0575053 0.978007 -0.200489 -0.334852 -0.928214 -0.162151 0.0194749 0.315622 -0.948685 -0.103506 0.00117001 0.994628 -0.119264 -0.32755 -0.937276 -0.931134 -0.351795 -0.0960752 -0.0344767 0.0342498 -0.998818 -0.453931 0.88685 -0.0862753 -0.0674185 0.605761 0.792785 0.937388 -0.3134 -0.151936 0.289129 -0.286718 0.913344 -0.236504 0.606927 -0.758753 -0.8779 -0.425932 -0.2188 0.894135 0.0919708 -0.438251 0.116393 0.0593429 0.991429 -0.151957 0.886626 0.436811 0.227273 -0.10876 0.967739 0.177845 -0.688468 0.703123 0.636026 -0.0290245 -0.771122 -0.292453 0.648364 -0.702919 -0.768199 -0.540162 -0.343649 0.97404 0.109885 0.197916 0.188707 -0.23356 -0.953855 -0.245506 -0.187325 0.951124 0.289755 -0.048969 0.955847 0.400686 -0.236505 -0.885164 0.238222 -0.966295 -0.0975942 0.857029 0.217085 -0.467306 0.508907 0.709494 0.487475 0.765032 -0.194502 -0.613917 0.834878 0.547941 0.0523415 0.0698459 0.742443 0.666258 0.742824 -0.520089 -0.421569 -0.936112 -0.283192 0.208558 0.10239 -0.986501 0.127795 -0.145993 0.174683 -0.973741 -0.959808 0.271707 -0.0703126 -0.76702 -0.594036 -0.24249 0.302092 0.416666 0.857397 0.04699 -0.978702 0.199837 0.854823 0.394852 0.336704 -0.273104 0.94513 -0.179288 0.828602 0.359942 0.428788 0.443584 -0.693043 -0.568264 0.743164 0.65617 0.13095 0.537692 -0.26862 0.799206 0.595415 -0.153204 0.788676 -0.463998 -0.884801 0.0428011 0.0603578 -0.102822 -0.992867 -0.752891 0.423662 0.503652 0.025997 -0.454346 0.890446 0.182616 -0.751149 0.634371 -0.669061 0.734665 0.112359 0.17461 0.232434 0.95681 -0.614241 -0.680981 0.398714 -0.635284 0.428188 -0.642705 -0.841217 0.282005 0.461333 0.901516 0.358478 -0.242409 -0.804999 0.590429 -0.0580524 -0.439107 0.653642 -0.61639 0.744966 0.589253 0.31274 -0.646695 -0.0912299 -0.757273 0.601827 0.652675 -0.460238 0.0866734 0.918169 -0.386591 -0.0433451 -0.655245 -0.754172 -0.708018 -0.411603 0.573842 -0.147595 -0.864195 -0.481023 0.595664 -0.256652 -0.761127 0.14522 -0.611776 0.777587 0.743259 0.607542 -0.280104 0.92337 0.253522 -0.288296 0.429629 0.592699 0.681268 0.728187 -0.64886 0.220734 0.120683 0.276708 -0.953346 -0.413413 -0.536162 -0.735948 0.94495 -0.251491 0.209339 -0.861931 0.189393 0.470324 -0.801197 0.291513 -0.522593 0.060734 0.10212 -0.992916 -0.146045 -0.96622 -0.212344 -0.779715 -0.617534 0.103425 0.377656 0.0364717 0.925228 0.926486 -0.286731 0.243741 -0.615259 0.0981486 0.782191 0.309635 0.401538 -0.861913 -0.0250133 0.975096 -0.220368 -0.0873136 0.295533 -0.951334 -0.0623003 -0.679565 -0.730966 -0.936465 -0.336537 -0.0988701 -0.879736 0.0523942 -0.472566 -0.956013 -0.00132619 -0.29332 0.167553 0.296292 -0.940286 -0.516246 -0.422349 0.745058 0.599853 -0.796325 0.0777346 0.307168 0.951634 -0.00634721 0.95682 -0.168902 0.236577 -0.364872 0.807218 0.463968 -0.282558 0.759197 0.586329 0.919979 0.307984 0.242458 -0.921693 0.258699 -0.289061 -0.476841 -0.315767 0.820313 0.286149 0.456968 -0.842199 -0.81195 -0.284438 -0.509738 0.850626 0.359774 -0.383404 -0.956303 0.265346 0.122787 -0.972775 -0.0767691 -0.218667 -0.333355 0.565654 0.754261 0.56282 -0.659752 -0.497957 0.95898 -0.124794 0.254528 0.947204 0.167684 -0.273288 0.184579 -0.980215 -0.0714741 0.0816716 -0.319342 -0.944113 0.183417 -0.171011 -0.968046 -0.0358726 0.0713012 0.99681 -0.958528 0.278182 0.0619616 0.210991 0.789161 0.576808 0.34201 0.806852 -0.481682 0.915311 0.192878 0.353558 -0.470624 0.78041 0.411672 0.448242 -0.199224 -0.871429 0.127674 0.405755 -0.905021 -0.457114 0.610977 0.646339 -0.561859 0.724081 -0.400026 0.997446 0.0690429 -0.018314 -0.235115 -0.547545 -0.803066 0.872544 -0.0677199 -0.48382 0.719334 -0.601216 0.347991 -0.574632 0.787383 -0.223219 -0.248977 -0.816392 -0.521071 0.231761 -0.871565 0.432042 -0.153209 -0.533496 0.83181 -0.134898 -0.950039 -0.281476 0.20479 -0.719823 0.663261 -0.971517 -0.196779 -0.132035 0.7457 0.234071 -0.623813 -0.162215 0.682114 0.713026 0.288163 -0.205755 -0.935215 0.169609 -0.978537 0.117038 -0.85257 0.323195 -0.410695 0.312337 0.887385 -0.339107 0.962421 0.259532 -0.0799323 -0.682006 -0.439155 -0.584817 -0.904217 -0.117993 -0.41045 0.0789353 -0.168857 -0.982475 -0.960799 0.0759207 -0.266648 -0.970558 -0.229882 -0.0719127 -0.918718 -0.332244 0.213474 -0.402995 0.89379 0.196809 0.579511 0.639506 -0.505172 0.671102 -0.01004 -0.741297 0.689004 -0.60291 0.40221 0.242396 -0.922454 -0.300538 -0.77073 -0.0905078 0.6307 -0.556494 0.814273 0.165147 0.339472 -0.538464 0.771243 -0.242593 0.739886 0.627469 -0.921859 0.240595 -0.303794 0.913284 -0.222189 0.341387 -0.497727 0.0945589 0.862164 -0.916438 0.308819 -0.254504 -0.550027 0.0311048 0.834568 0.258678 0.119385 0.958558 -0.501297 -0.857266 -0.117455 0.694394 -0.694979 -0.186603 -0.473806 0.298875 0.828361 -0.439981 -0.747766 -0.497255 0.103313 -0.986469 -0.127304 -0.368042 0.284894 -0.885088 0.991739 0.0489644 0.118561 0.595332 -0.235484 0.768198 -0.209833 0.801906 0.55939 -0.222606 -0.743366 -0.630756 0.304368 -0.948942 -0.0828811 -0.472772 -0.564717 0.676448 0.591977 0.80092 0.0899426 0.001345 -0.539789 -0.841799 0.332624 0.313016 0.889597 -0.567363 0.798962 -0.199398 0.894127 0.423927 0.144299 0.408391 -0.81167 0.417622 -0.943035 -0.332206 -0.0179876 -0.254307 0.831385 -0.494092 -0.59482 0.220786 0.772944 0.588624 0.711813 0.383202 0.76211 -0.6152 -0.201783 0.430144 0.0447217 0.901652 -0.342714 -0.0710293 -0.936751 0.203559 -0.83343 0.513768 -0.356912 0.578485 0.733464 -0.925535 0.204722 0.31855 0.174451 0.504565 0.845566 -0.121628 -0.658332 0.742836 -0.949583 -0.234854 -0.207691 0.889304 -0.20463 0.408979 0.591845 -0.491994 0.638484 -0.34531 -0.878273 0.330754 -0.257014 0.78753 -0.560126 0.276548 -0.800283 0.532042 -0.770836 -0.368923 -0.519334 0.88328 0.456529 0.106764 -0.779954 0.255307 0.571393 0.214195 -0.97134 0.103048 0.176013 0.249578 -0.952224 -0.639613 0.74754 -0.179106 0.294405 -0.466577 0.834045 -0.231439 0.89132 0.389852 0.411873 -0.644043 -0.644647 0.573294 -0.365049 0.733535 -0.872423 -0.385555 0.300376 0.451792 -0.595759 0.664045 0.696888 -0.609122 -0.378573 0.733103 0.616865 -0.286422 0.638843 -0.631922 0.438811 0.659913 0.416375 -0.625417 -0.930128 -0.315368 0.188164 -0.55424 0.567098 -0.609276 0.361452 0.0605577 0.930422 0.103493 -0.828011 0.551077 -0.25796 -0.888569 -0.379344 -0.562089 -0.485469 -0.669609 0.179529 0.963084 -0.200598 -0.379933 0.100493 -0.919539 0.342451 -0.717774 0.606241 0.924028 -0.228872 0.30625 0.750648 -0.222746 -0.622023 -0.710489 0.682189 0.172693 0.319424 0.0403241 0.946754 0.94158 -0.253949 0.221216 -0.294972 0.79911 -0.523846 -0.913412 -0.370494 0.168564 0.846562 0.290169 0.446245 -0.548495 0.102464 -0.829852 0.389294 -0.278582 -0.877976 0.203409 -0.481759 0.852369 0.134001 -0.511064 0.849033 -0.638013 -0.767247 0.0653556 0.390972 0.862632 0.320948 0.498266 0.67542 -0.543635 -0.0967353 0.442229 0.89167 -0.785413 0.548617 0.286611 0.324781 -0.854554 -0.405283 -0.719286 -0.128982 -0.682635 -0.821 -0.512341 -0.251924 0.273781 0.770364 0.575833 -0.952104 0.295231 0.0795979 -0.680564 -0.20356 0.703844 0.159866 0.57521 -0.802232 -0.820298 0.501242 -0.275442 -0.687573 -0.670127 0.279594 0.560259 0.682471 0.469407 0.829184 0.457841 0.320679 -0.514272 0.839788 -0.174012 -0.0769791 0.991776 0.102251 -0.519367 0.532716 -0.668186 0.376433 0.920313 0.106403 -0.577177 0.802031 0.153665 0.924944 0.0260408 -0.379211 -0.773633 -0.369552 -0.514707 -0.239401 0.707829 0.664579 0.48725 0.567966 0.663326 -0.547234 0.75407 -0.3632 -0.277448 -0.254254 -0.926487 0.00699298 -0.980641 -0.195687 -0.133297 0.758512 -0.637881 -0.77267 0.230702 -0.591403 -0.598921 -0.777009 0.193781 0.49509 0.296088 -0.816834 -0.882534 0.255627 0.394702 -0.244099 -0.307062 0.919853 0.638434 -0.562688 0.525152 0.772905 -0.331763 0.54088 -0.0102561 0.949952 0.312226 -0.812598 -0.00615823 -0.582792 0.634198 0.110049 -