# vtk DataFile Version 4.0
Generated by libgran
ASCII
DATASET POLYDATA
POINTS 1686 FLOAT
-32.7898 1.43081 6.81858 -31.5788 0.680635 8.11916 -33.433 1.45196 5.15411 -32.3521 2.39102 6.22713 -34.2003 -0.67221 8.32668 -33.9039 1.9661 4.05849 -31.8086 -0.156695 12.8381 -31.8305 -1.83002 13.4007 -32.2215 0.53106 11.7777 -32.2275 -0.601402 10.3923 -31.6536 1.03713 10.4196 -30.9252 1.07392 9.33021 -31.7663 -3.34931 16.0195 -30.8364 -3.11606 15.0981 -30.7777 -1.97144 15.0653 -29.9595 -0.483766 14.6279 -29.3471 -0.232922 15.3777 -29.2222 0.288133 13.9599 -33.2588 -4.00962 13.9579 -35.4108 -4.43583 15.2593 -34.2672 -4.02528 14.719 -34.6004 -4.2467 16.4215 -36.173 -4.88066 14.2583 -34.0449 -4.58596 17.4437 -34.2392 -3.20524 17.8823 -34.5577 -2.74738 18.9519 -33.2787 -2.74421 19.2889 -33.1044 -4.21872 21.9929 -34.1174 -3.23695 22.624 -33.3389 -3.28349 20.9438 -33.0935 -5.47085 22.4402 -34.1914 -6.86184 22.0674 -33.8843 -3.24956 24.2916 -32.5545 -3.79472 19.6797 -33.5797 -7.50626 20.0737 -34.3669 -8.66351 19.7897 -32.3184 -7.91682 19.9815 -31.2214 -8.07639 19.9538 -30.735 -6.88226 21.224 -31.4675 -6.25508 22.6778 -30.3397 -5.46684 21.3697 -33.695 -9.80599 20.7997 -25.5019 -12.058 23.2887 -26.4164 -11.5861 22.4467 -27.6723 -12.5252 22.3123 -25.1476 -11.3438 25.1124 -26.5383 -11.3577 25.5215 -29.0943 -13.4706 22.3688 -30.8937 -10.9906 19.7746 -29.8482 -10.4083 19.04 -30.4113 -12.1328 20.2549 -31.9386 -11.9173 20.5879 -29.6844 -13.1443 21.2796 -32.8155 -10.9569 21.4407 -28.8294 -11.6353 18.0953 -28.717 -12.857 16.9219 -27.8171 -15.0192 17.5585 -27.4284 -14.8189 16.3026 -28.6529 -14.0693 16.359 -26.6006 -14.4036 18.6213 -25.6069 -14.3154 16.0548 -25.0582 -14.1729 19.1219 -24.975 -15.2745 19.3732 -24.7767 -12.5268 12.4406 -25.7673 -13.0262 12.1279 -26.1514 -11.5627 12.8585 -23.5217 -12.5166 12.88 -23.3264 -13.2075 11.3877 -23.4801 -12.3159 14.7331 -24.256 -13.0858 15.9393 -35.9527 15.4726 3.2381 -36.0194 14.906 1.33757 -35.9743 13.915 1.21165 -35.0676 16.0108 4.45117 -34.6018 15.8898 5.4373 -33.6502 16.1868 5.51653 -34.0875 15.702 6.27407 -39.1209 14.349 0.518012 -39.8641 15.0401 -0.340017 -38.0711 15.6647 0.126442 -38.4922 14.0075 1.36886 -39.3817 12.5875 0.754911 -40.1574 11.55 1.13877 -40.9347 10.4639 1.79811 -45.1079 11.1074 0.80395 -45.2349 10.1979 0.0729097 -45.6211 12.4351 -0.1194 -44.5962 12.6247 2.00036 -41.8626 9.95336 1.64229 -40.8587 8.89445 0.954889 -41.0835 9.12155 -0.332207 -40.7655 8.14656 -0.836868 -40.8069 7.41975 0.567834 -40.8751 10.5604 -1.32405 -42.3865 9.63086 -0.995065 -40.8506 10.9017 -2.61882 -40.9175 5.96979 0.152559 -41.3673 6.00917 1.70891 -41.5261 7.31155 -7.21466 -40.6528 6.98319 -8.16199 -41.7208 5.56706 -7.89581 -41.9319 8.80843 -8.94186 -42.6624 8.25019 -9.48805 -42.9894 9.09418 -7.8196 -43.7964 7.87633 -10.2027 -43.7199 8.53594 -8.3658 -42.7449 4.10263 -7.63069 -42.7183 9.47319 -5.69962 -43.364 9.44133 -6.87372 -42.8965 9.49792 -4.48572 -43.3386 9.35921 -3.46116 -44.1638 9.07119 -2.76004 -43.3567 8.91139 -2.08168 -45.164 10.4464 -3.11251 -43.7354 10.2415 -1.033 -40.1844 3.45259 -9.97928 -38.8767 3.56032 -11.076 -39.5348 2.38309 -9.64428 -40.4572 4.71248 -9.65305 -40.7619 5.93707 -10.1132 -42.4108 5.90144 -10.0764 -40.1122 0.864493 -9.1652 -43.4894 5.46887 -10.6242 -42.7629 0.640763 -6.49603 -42.0617 1.78018 -6.70267 -43.1843 2.5246 -6.96368 -40.8232 2.82112 -7.09953 -25.83 13.0359 19.7348 -26.3104 13.9992 20.5154 -24.7671 14.1585 20.1171 -27.1407 12.3087 18.6247 -28.9914 12.7887 19.8405 -29.5849 10.3557 18.0822 -29.7288 11.9122 17.0545 -30.2402 9.26398 17.9426 -29.7063 8.51022 18.511 -28.9575 11.8012 16.4276 -31.8847 8.82703 18.1651 -30.8592 9.28165 16.6093 -32.4019 8.59113 19.7537 -26.7093 4.08793 13.439 -26.54 2.96932 13.3254 -27.0378 5.28862 13.9064 -28.5812 4.59204 13.7735 -28.0354 2.25976 14.0148 -27.7287 1.89104 12.5912 -28.5279 1.58632 15.343 -27.3488 1.10401 11.4559 -26.9749 1.29875 10.4681 -29.7783 8.8486 15.6316 -30.942 8.82252 14.9889 -28.4927 8.95339 15.0961 -30.9286 7.29912 14.0619 -32.0251 8.71811 13.85 -31.4647 6.06215 13.9949 -30.0549 5.54002 13.8741 -33.3039 6.60631 5.69627 -34.3685 6.18242 5.02176 -32.7798 7.4374 6.35452 -32.4366 5.77735 6.90864 -36.133 5.65955 5.61863 -34.2456 4.06159 6.79218 -37.2722 6.21025 5.12466 -37.0452 6.19346 3.62707 -40.2716 5.03061 3.78752 -38.7169 4.52995 3.90942 -41.428 5.50723 3.33948 -41.7357 4.9083 1.63029 -37.5832 5.87996 2.79456 -38.1717 3.84067 5.18609 -32.5373 5.60782 11.7335 -31.8441 7.88928 10.7531 -33.1337 8.22806 11.888 -33.3242 8.59024 12.9168 -34.125 7.57913 13.3543 -32.3331 10.1143 13.0978 -34.5873 6.29295 14.0025 -34.7119 3.39382 9.35316 -34.2955 3.22435 10.6045 -33.7622 3.54963 7.61558 -33.6727 3.46405 11.832 -26.1625 23.324 28.3479 -26.5812 22.0409 28.8422 -26.1587 22.8425 29.9129 -25.9269 23.5145 27.0532 -26.3029 24.9719 27.6995 -27.059 26.1554 27.8017 -23.3621 23.5363 28.2382 -23.0095 23.7366 30.5483 -23.8399 24.3382 31.7401 -22.7511 23.5245 29.2613 -22.3246 23.2251 28.2806 -24.0949 25.3676 28.838 -23.7969 24.4563 32.9709 -25.7853 27.4269 33.2157 -25.4176 28.3883 34.0604 -26.4573 29.2483 33.3624 -26.1272 26.797 32.3699 -25.1749 26.1013 32.0809 -23.8257 28.9408 35.072 -25.9073 25.2419 31.409 -21.1521 25.8914 34.9369 -21.2884 24.5834 35.1342 -21.0326 26.9866 34.932 -20.0194 27.6309 35.7482 -21.0765 28.4436 35.3337 -18.4724 27.3313 36.4722 -18.6376 28.5693 36.0915 -22.0908 29.3662 35.2058 -20.1628 29.5465 34.8088 -28.1648 23.6837 33.1712 -28.6313 25.919 33.597 -30.6823 24.7983 35.6746 -30.5716 23.6922 34.7877 -30.1879 23.0675 33.0325 -26.8603 23.4345 33.0447 -31.9494 20.8789 31.0783 -32.5294 21.696 32.5614 -30.694 20.6611 30.694 -29.8396 20.356 30.2735 -32.6234 22.706 33.8496 -33.5196 22.2885 33.7 -35.3014 22.7794 33.5433 -36.067 22.7287 32.2507 -35.6754 21.8709 31.7526 -37.0611 24.1326 31.4951 -37.5299 23.901 33.135 -37.9927 24.6251 32.1598 -36.7214 21.9277 33.586 -37.561 24.8655 34.7491 -37.7495 25.9345 32.8762 -41.4631 25.4388 36.1499 -40.8933 26.5465 35.6847 -39.9504 25.7796 35.1721 -38.5552 25.7464 34.8701 -41.4395 25.7989 33.9783 -37.4399 25.9588 34.4968 -36.2553 9.05502 22.6068 -36.362 8.0288 23.4448 -37.7177 9.2643 23.3656 -34.9031 8.85192 21.6848 -35.9975 10.1955 21.7241 -33.599 7.56289 21.344 -32.6314 6.82568 20.5504 -33.1679 6.11905 19.8278 -31.5086 6.34185 19.7636 -33.7331 5.10244 19.1834 -33.759 4.64312 20.5436 -29.6784 4.71539 19.1726 -29.2906 5.72694 18.8424 -40.9907 10.0057 22.3997 -41.5625 9.30634 23.3754 -42.9834 8.96087 22.6641 -41.194 11.4629 22.669 -42.5138 11.2288 22.0636 -39.4916 7.50404 20.619 -39.5911 9.08228 21.3103 -38.8904 7.12175 21.4875 -38.2757 6.70097 22.1548 -36.6237 6.99677 21.3563 -37.3917 6.0195 22.638 -30.1838 15.9712 22.5455 -31.2965 16.0422 23.2701 -30.1176 15.7108 24.4245 -29.1653 15.4327 21.8298 -30.0948 15.1711 20.8293 -32.2687 16.84 23.5379 -31.7802 17.8095 24.9227 -30.6975 18.4643 26.3891 -33.7716 10.7892 20.1824 -32.7683 10.4864 20.9643 -32.0595 11.5095 20.0946 -34.7283 11.6968 20.0107 -35.6477 10.8207 20.7933 -30.8482 11.6214 20.8259 -30.6836 12.6075 20.8027 -29.5694 19.8226 26.8148 -29.6064 18.2607 26.5502 -30.3569 19.9204 29.0034 -31.7572 19.9564 27.9254 -29.3513 16.7232 26.6556 -28.7184 15.5482 27.4881 -31.4884 20.24 25.5707 -32.4559 19.6145 26.5979 -31.3528 21.5556 25.7081 -32.8732 22.294 25.3639 -34.4884 22.1177 25.4579 -34.4381 23.4532 23.7519 -5.93078 24.8487 38.4525 -4.93986 24.8014 38.5784 -7.1833 24.3964 38.5001 -5.41201 24.0912 38.0563 -7.97773 25.5296 39.553 -8.77188 24.0744 38.9673 -8.82129 25.16 39.1634 -8.83534 26.0353 39.6467 -4.68909 23.0876 38.2993 -3.61503 23.7504 37.6682 -4.2782 21.3983 38.3744 -9.63946 23.1811 37.9172 -5.57293 19.6455 39.719 -5.66154 20.5502 38.4788 -6.42963 18.5104 39.9752 -6.89199 17.5399 40.2919 -3.74697 20.7528 39.3175 -0.980451 25.047 38.658 -2.08652 25.1737 37.931 -2.29255 23.954 37.8515 0.122434 26.5584 38.5082 -2.04887 26.8052 37.5425 -2.44473 22.7109 37.7119 -2.18234 28.5859 37.8631 0.567143 30.9224 38.196 1.36375 29.7082 38.9657 -2.21875 30.2311 37.5029 2.36608 29.2634 38.1856 -3.03556 29.6145 38.8692 -20.9019 31.9328 42.4449 -19.6779 31.5036 42.1523 -20.9685 31.9963 44.1448 -22.1406 31.3488 42.7692 -18.385 30.4823 44.6006 -18.7796 30.8843 46.1443 -17.8131 29.8097 43.1091 -15.4728 28.9256 41.2397 -16.2586 28.7672 42.3005 -14.5165 27.5818 41.1069 -17.3102 28.6381 42.4938 -17.1481 27.5238 43.4794 -16.2313 27.0469 42.9127 -13.3369 27.6061 41.904 -14.1297 27.1163 42.5625 -16.9828 26.7359 44.8535 -11.2441 24.1646 42.672 -12.4833 24.4801 43.0439 -11.1123 24.6238 41.7935 -10.3206 24.3072 42.3159 -12.7855 25.4576 44.0838 -13.1738 24.4342 44.9072 -13.4621 26.8846 43.878 -10.3662 25.7506 41.4426 -15.0587 26.7397 43.3075 -10.1384 27.7547 39.293 -9.52515 26.6111 38.9699 -10.7245 27.3438 40.6754 -10.847 28.3242 40.8299 -11.7132 27.7996 39.334 -10.666 27.7151 41.6021 -20.0509 35.1474 39.6572 -20.2083 36.0172 37.9687 -19.103 35.6455 40.4464 -19.0683 37.239 40.2047 -18.7348 37.0101 41.1192 -19.309 37.8176 40.984 -19.3705 38.9325 40.4448 -20.0594 35.6281 36.9386 -20.906 37.0152 37.408 -18.2464 38.2636 41.7851 -19.4321 40.995 44.3177 -21.1378 40.6118 43.7561 -21.3064 41.1956 44.7506 -21.3741 39.801 42.4153 -22.7101 39.8357 43.6217 -19.9998 39.636 41.213 -18.3079 39.3786 41.2459 -21.3514 43.0506 46.0726 -20.2857 43.6693 44.7448 -20.7373 42.6546 47.1834 -21.9044 41.8636 46.0025 -20.2432 43.7424 43.4813 -19.1009 44.5591 44.265 -20.7915 40.2472 48.3481 -21.5993 39.2661 51.4548 -21.0217 40.3913 51.0446 -22.1349 41.1122 51.7101 -20.0856 40.1959 49.8155 -18.6107 41.1931 49.6399 -23.1066 41.7884 51.502 -16.6906 28.4459 38.931 -15.9831 28.1521 37.8444 -16.1979 29.5162 37.6098 -15.6856 26.6158 37.9012 -17.3213 29.7423 36.6231 -14.6276 26.168 39.0964 -13.1832 27.0438 39.2104 -18.7199 29.5839 35.5815 -19.0209 30.6744 34.3748 -18.2958 29.9872 34.3301 -18.1286 30.9131 33.9916 -19.3272 31.792 36.0431 -18.9218 31.2788 37.0987 -21.8696 30.2107 37.1705 -22.3786 31.3568 36.0796 -22.1891 33.7893 41.5339 -23.7752 33.0697 41.6645 -21.5407 32.9294 40.754 -21.956 32.7776 39.5514
[...]
POINT_DATA 1686
FIELD FieldData 1
normals 3 1686 double
-0.399897 0.453798 -0.796335 0.811108 -0.296373 0.504248 -0.243244 -0.432643 -0.868131 0.837595 0.506417 0.204881 -0.993471 0.0713784 -0.0889925 -0.227687 0.946787 -0.227493 -0.409946 0.908135 -0.085064 -0.431822 -0.76519 0.477508 -0.00297331 -0.22038 -0.97541 -0.00306951 -0.912082 -0.409996 0.570849 0.726447 -0.382631 0.157528 -0.689656 -0.706795 -0.389608 -0.851609 0.350668 0.540294 -0.618366 -0.570706 0.598996 0.526261 -0.603533 0.219279 0.96141 0.166157 -0.393109 0.710565 -0.583577 0.517933 -0.18951 -0.834165 -0.817871 0.574942 -0.022988 -0.95294 0.180046 -0.243905 0.190563 0.590595 -0.784145 -0.142597 0.369174 0.918355 0.190659 -0.624884 -0.75708 0.698097 -0.708438 0.103808 0.503782 0.672281 0.54244 -0.822267 -0.214418 0.527164 0.456724 -0.211248 0.864163 0.751378 -0.607186 0.258371 -0.261645 0.37458 0.889512 0.516874 0.328039 -0.790716 -0.740504 -0.644943 0.188951 -0.357456 -0.746049 -0.561814 0.494722 -0.38719 0.778032 0.2675 -0.839265 -0.473369 0.805536 0.196038 0.559179 0.0182718 -0.961211 0.27521 0.455778 -0.606596 -0.651389 0.641188 0.447023 0.623738 -0.154817 0.747101 0.64643 -0.577656 -0.119915 0.807424 0.550168 0.668323 -0.500659 0.653646 -0.181274 0.734769 -0.34091 0.926306 -0.160431 -0.573567 -0.454382 -0.681586 -0.682405 -0.48467 0.547192 0.794862 0.587057 0.153489 -0.595828 0.573183 0.562539 -0.739607 -0.460742 -0.490611 -0.393853 -0.917572 0.0542319 0.651674 -0.335267 -0.68038 0.876352 -0.224628 0.426086 -0.650963 -0.00919103 0.759054 -0.149529 -0.786963 0.598607 -0.225924 0.969623 0.0937501 0.367137 -0.891813 -0.264348 -0.254755 -0.329886 -0.908997 0.516948 -0.0675923 0.853344 0.905713 0.132705 -0.402584 -0.318858 0.882343 -0.346121 0.69954 0.683213 0.209436 0.915715 0.370813 0.154806 0.842883 -0.452523 0.291154 0.759694 0.64906 0.0398279 0.872535 -0.10145 -0.477902 -0.118083 -0.600785 -0.790641 -0.502199 0.862663 -0.0600697 0.382417 0.111666 0.917217 0.577723 -0.579258 -0.575062 -0.340783 0.0890068 0.935919 -0.435166 -0.858817 0.270304 -0.0180218 0.174615 0.984472 -0.0847638 -0.391981 -0.91606 -0.129851 0.599015 -0.79014 0.903043 0.363673 0.228594 -0.437237 -0.484722 0.757541 0.514356 -0.187748 0.836773 0.951593 0.296974 0.0792297 -0.199382 -0.812919 0.547183 -0.942609 -0.121913 -0.310846 0.85034 0.5027 0.155613 0.82802 0.471347 0.303669 -0.061419 -0.948658 -0.310283 -0.714341 -0.0887696 0.694144 -0.062906 -0.997412 -0.0348095 -0.508556 0.860127 -0.039392 -0.635604 -0.0494048 -0.770432 -0.00467136 0.467542 -0.883959 -0.460249 0.883244 -0.0897296 0.86503 -0.486908 0.121011 -0.138902 0.571997 0.808409 -0.363744 0.799093 -0.478687 -0.0456962 -0.175895 -0.983348 -0.0871206 -0.902702 0.421354 0.572196 0.639736 -0.513157 -0.939207 -0.289777 -0.184171 -0.547726 -0.298446 -0.781618 -0.0234835 -0.547266 -0.836629 -0.473338 -0.507884 0.719726 -0.231561 0.880038 0.414624 0.641778 0.551675 -0.532705 -0.426258 -0.864446 -0.266529 -0.251861 0.684509 0.684114 -0.982362 0.12627 0.137915 -0.805615 -0.398765 0.438145 -0.151562 -0.500131 -0.852583 -0.0751105 0.159473 0.984341 -0.597799 -0.599985 0.531652 0.21464 -0.714062 0.666367 -0.43106 -0.74592 -0.507731 -0.392925 0.738795 0.547533 -0.0491358 -0.877509 0.477037 -0.776076 0.589488 0.224077 0.0310405 0.429693 0.902441 -0.224102 0.785728 -0.57655 -0.409691 0.900426 0.146239 -0.81004 0.420502 0.408674 0.497622 0.528227 -0.688003 -0.160487 -0.648998 0.74367 0.537243 0.839389 -0.0824423 -0.841986 0.385196 -0.377734 -0.806882 -0.42082 0.41455 -0.416877 -0.869602 -0.264586 -0.271688 -0.0117574 -0.962314 -0.262935 0.905781 -0.332303 0.96417 0.233637 0.125661 -0.158408 0.978053 -0.13535 0.274308 0.807301 -0.522514 -0.399002 -0.487309 -0.776742 -0.879426 0.476021 0.00376934 0.663897 0.635285 -0.394529 -0.911764 -0.239874 -0.333388 -0.724377 -0.00149264 -0.689403 0.251219 -0.93455 0.252003 0.107341 0.621911 -0.775696 -0.906587 -0.157196 -0.391649 -0.372693 -0.910963 0.176765 -0.663877 0.732887 -0.148811 -0.737899 -0.279755 0.6142 0.287666 0.174869 -0.941631 0.220699 0.043859 0.974355 -0.888023 0.42584 0.173425 -0.718672 -0.69277 0.0598417 0.559596 0.77485 0.294041 -0.983829 0.0782689 0.161102 -0.776738 -0.0167945 0.6296 -0.470028 -0.385516 -0.794009 0.284197 -0.656649 0.698602 0.849882 -0.401508 -0.341309 -0.475909 0.596248 -0.646528 0.793177 -0.607925 -0.036031 -0.370512 -0.634006 -0.678791 0.492468 0.71272 -0.499505 0.383892 -0.889395 -0.248201 -0.71261 0.529603 -0.460117 -0.919966 -0.347567 0.181276 0.489853 -0.869706 0.0604659 0.251573 -0.0810565 0.964438 -0.813003 -0.504946 0.289923 0.272479 0.912143 -0.306187 0.615769 -0.747905 0.247925 -0.951558 -0.0179262 0.306945 0.94729 -0.317753 -0.0409169 -0.187608 0.568632 -0.800912 0.414627 -0.585427 -0.696678 -0.74362 0.482553 0.462787 0.811062 -0.0181084 0.584679 -0.412726 -0.00594125 -0.910836 0.10496 -0.59298 -0.798347 0.952684 -0.271927 0.135827 -0.265852 -0.671169 0.691993 0.300317 -0.718786 0.627022 -0.51247 0.634068 0.579079 -0.777084 -0.295297 0.555824 0.586498 0.657479 0.473013 -0.21425 -0.35363 0.910518 0.404681 0.866574 -0.292033 -0.248082 -0.932552 -0.262303 0.485722 -0.0384 -0.873269 0.902141 -0.207863 0.378067 0.463946 0.194209 -0.864313 -0.279409 0.447563 0.849481 -0.357293 0.671637 -0.649034 -0.77597 -0.611494 -0.154744 -0.353421 0.190083 0.915949 0.592913 -0.481193 -0.645684 0.216906 0.976192 0.000651411 -0.97299 0.207305 0.101564 0.741455 0.619278 0.258339 0.128057 -0.84312 -0.522255 -0.702376 -0.24154 0.669571 0.1304 0.631035 -0.764716 0.296047 -0.930433 -0.215987 -0.323305 -0.475891 -0.817925 0.745446 0.359669 0.561203 0.442625 -0.855646 -0.268241 0.810288 0.105741 0.576413 -0.229349 0.965723 -0.121566 -0.784485 0.225798 -0.57758 0.167807 -0.469975 -0.866582 0.781654 0.446791 0.435195 -0.900281 -0.38937 0.19464 0.102275 0.539227 -0.835927 -0.0340578 -0.768716 -0.638682 0.0171846 0.555982 0.831017 0.995983 0.0883008 -0.0148329 -0.061057 0.901083 -0.429326 0.551089 -0.387896 0.738809 0.385871 0.850179 0.358188 -0.953252 0.0214422 0.301415 0.974751 0.201828 -0.0955298 0.521307 -0.486146 -0.701356 0.847716 -0.146385 -0.509853 0.131972 -0.985616 0.105569 -0.0213186 -0.120504 -0.992484 0.40506 -0.504226 -0.762681 0.783206 0.236906 0.57486 0.421649 -0.758149 -0.497416 -0.158325 0.0590248 0.985621 0.833764 0.540419 0.113073 0.0206773 -0.845519 -0.533546 0.0643679 0.950943 0.302595 -0.831899 0.53341 0.15303 -0.949866 -0.0425191 -0.309754 -0.184228 0.0081328 0.98285 0.207371 -0.849681 0.484808 -0.5909 -0.447567 0.671209 0.122103 0.216064 0.968714 -0.340708 0.940146 -0.00654976 -0.470108 -0.809177 0.352464 -0.15317 0.748355 0.645371 0.583927 0.369232 0.722978 -0.958554 -0.241439 0.151266 -0.388716 0.866255 -0.313851 0.554133 0.0993159 -0.826482 0.841075 -0.132544 0.524429 -0.367594 -0.82329 0.432514 0.274287 0.344961 -0.897646 0.797563 0.448036 -0.403928 0.690859 -0.578183 0.434071 -0.664834 0.657318 0.354865 0.554631 -0.651134 -0.518082 -0.539745 0.692425 -0.478772 0.749443 -0.637891 0.177288 0.218185 -0.0993176 -0.970841 -0.754704 -0.607317 0.248169 0.904586 -0.384522 0.184031 0.189566 -0.409294 -0.892493 0.163644 -0.868615 0.467684 -0.187786 0.415488 -0.890003 0.575617 0.596059 0.559802 0.205595 -0.0702408 0.976113 -0.777344 -0.629076 -0.000388053 -0.643598 0.283607 -0.710878 -0.943728 -0.107952 0.312609 -0.376135 -0.126141 -0.917939 0.973331 0.185827 0.134517 0.182628 -0.10656 0.97739 -0.372137 -0.56812 0.733998 0.986829 0.147346 -0.0667631 0.665248 0.148454 -0.731715 -0.102826 -0.828816 0.549992 0.147663 -0.124668 -0.981149 -0.965034 -0.0536532 -0.256576 0.213833 -0.385041 0.897785 0.870806 -0.413822 0.265422 -0.0587132 -0.675415 -0.735096 -0.00713491 0.851483 0.524334 0.495615 0.117976 0.860492 0.587099 0.536821 0.60592 -0.98664 -0.0356382 0.15897 0.0166515 -0.338437 0.940842 0.72541 0.684634 0.0711048 0.0299448 0.943282 -0.330639 -0.889504 0.0671713 0.451963 0.485949 -0.572662 0.660236 0.650538 0.413429 0.637085 0.540945 0.821528 -0.180195 0.504003 -0.74036 -0.444801 0.538017 -0.409906 0.736556 -0.862304 -0.373951 -0.341458 -0.248906 -0.797116 0.550138 0.881725 -0.377902 0.282402 0.803811 0.593451 -0.041276 -0.16369 -0.0320679 0.98599 -0.668234 0.722158 0.178752 -0.852184 0.0162652 -0.522989 -0.76302 -0.192581 0.617019 -0.44607 -0.747376 -0.492394 -0.472148 -0.710282 -0.522087 0.518774 -0.757546 -0.39623 -0.780375 0.257935 0.569636 0.990922 -0.0472644 0.125857 -0.0140554 0.875352 0.483282 -0.808203 -0.579938 -0.102371 -0.857609 0.505694 0.0937055 -0.843554 -0.369658 -0.389576 -0.268005 -0.956272 0.117117 0.806059 -0.293519 -0.513922 0.678898 -0.733031 -0.0419905 -0.0593784 -0.313323 -0.947789 0.128033 -0.961626 0.242659 0.0394253 -0.0569252 -0.9976 -0.984733 -0.173546 0.0135074 0.522376 -0.796973 0.303245 -0.147673 0.0875202 0.985156 0.795689 0.595762 0.109303 -0.310379 0.722503 -0.617782 -0.516414 -0.497188 -0.697223 0.307196 0.915677 -0.259164 0.348027 0.908995 0.229361 0.364243 -0.745933 0.557594 -0.481495 0.871694 0.0911645 -0.372932 0.314247 -0.873024 0.423674 -0.899909 -0.103263 -0.445086 -0.773456 0.451292 0.578654 0.455073 -0.676808 -0.371729 0.15689 0.914988 -0.547811 -0.0709305 0.83359 0.676188 -0.50015 0.540944 0.481204 0.134413 0.866242 -0.690879 -0.513073 -0.509355 0.750053 -0.191673 -0.632994 0.355445 0.210297 0.910732 -0.178153 -0.480953 -0.858455 0.415144 -0.661556 -0.624499 -0.370622 -0.819903 0.436346 0.541154 -0.682214 0.491667 -0.68104 0.690716 -0.243096 -0.518963 -0.423531 0.742495 0.39792 -0.900412 0.175832 0.638417 0.706482 0.305461 -0.154314 0.216682 0.963969 0.684282 -0.364406 0.631638 0.79174 -0.316594 0.522414 -0.447459 -0.00107359 0.894304 0.923509 0.142678 -0.356054 0.131769 0.459272 -0.878468 0.145219 0.978623 0.14563 -0.243039 -0.0448006 0.968981 -0.821842 0.44836 -0.351496 -0.177402 0.984125 0.00508389 -0.774686 -0.593227 -0.218959 -0.767031 0.198137 0.61025 -0.153751 -0.945451 0.2872 0.18093 -0.60905 0.772219 0.0584848 0.371336 0.926655 -0.807781 -0.153262 -0.56921 -0.122445 0.980386 0.154437 0.338878 -0.287972 0.895675 0.181424 0.581802 -0.792838 0.608939 0.786042 -0.106452 -0.574178 0.807481 -0.135257 -0.2407 0.57859 0.779293 0.333478 -0.22889 0.91455 0.271976 0.886082 0.37535 -0.0325457 -0.970912 -0.237213 -0.879101 0.416278 0.23215 0.729125 0.67491 -0.113461 0.996334 -0.0799874 0.0303335 -0.709375 -0.463185 -0.531269 -0.877972 0.120586 0.463275 0.473067 -0.347683 -0.809521 -0.862869 -0.31297 0.39687 0.901288 0.182665 -0.392828 0.790628 -0.44006 0.42574 -0.27292 -0.639628 0.718604 0.792776 -0.0209828 -0.609152 0.887032 0.24356 0.392241 -0.280036 -0.547405 -0.788624 -0.750265 0.0941346 -0.654402 0.392038 0.910811 0.129344 0.711062 -0.441876 0.546934 0.353304 -0.929967 0.101674 0.930964 0.195237 -0.308527 -0.182272 0.916164 0.356959 0.00514358 -0.390628 -0.920534 -0.481704 0.350093 -0.803366 -0.789365 -0.239977 -0.565079 0.685689 0.521444 -0.507866 0.0218974 -0.815169 -0.57881 -0.192927 0.548885 -0.813329 0.275583 -0.721145 0.635614 -0.930455 -0.322779 -0.173396 0.782353 0.273345 0.559649 0.662132 0.60248 -0.445644 -0.468161 0.16443 -0.86821 0.167177 0.925984 -0.338535 0.892277 0.238788 -0.383175 0.725099 -0.687196 -0.0446394 0.843007 0.194893 0.501354 -0.437555 -0.70806 0.554253 -0.754958 0.581634 -0.302887 0.24598 0.564479 -0.787945 0.951361 -0.0328938 -0.306319 -0.634686 -0.752519 -0.175754 -0.302966 -0.827012 -0.473564 -0.112305 0.675192 -0.729043 -0.409466 -0.875927 0.255126 -0.987076 -0.152069 0.0505628 -0.774121 0.629358 -0.0681531 -0.453537 -0.302129 -0.838465 -0.03561 -0.879376 0.474794 -0.426592 -0.178512 0.886653 0.336009 -0.941163 -0.036204 0.618385 0.136782 -0.773881 -0.0206083 -0.632429 -0.774344 -0.638993 -0.769212 -0.000464958 -0.609733 0.792496 0.0133034 -0.662774 -0.389177 0.639743 0.0037278 0.976575 0.215146 0.541307 0.328027 0.774199 0.273323 -0.634054 0.723374 -0.267984 -0.962082 -0.0508251 0.156428 -0.985205 -0.0700122 0.940806 0.330238 -0.076333 0.961277 -0.213424 -0.174346 0.31588 0.945426 -0.0799293 0.392633 0.114218 0.912575 0.552012 0.00661072 -0.83381 0.819239 -0.0795822 0.567904 -0.165125 0.0791413 -0.983092 -0.320517 0.340971 0.883747 0.638241 0.764392 0.0913973 -0.38501 -0.515961 0.765214 -0.895377 0.445308 -0.000610469 0.991191 -0.110665 -0.0727538 -0.0162185 0.520562 0.85367 0.184819 0.982721 -0.0100384 -0.431522 -0.820666 -0.374561 0.201038 0.462161 -0.863708 -0.259634 -0.149228 0.954108 -0.000468327 -0.151721 -0.988423 -0.901444 -0.276507 -0.333082 0.157932 0.224011 -0.961705 -0.383873 0.919757 -0.0817858 -0.18121 0.540431 0.821643 0.935297 -0.348654 -0.0605012 0.144662 -0.383179 0.912275 -0.115564 0.65475 -0.746959 -0.824723 -0.411865 -0.387556 0.952934 0.121416 -0.277803 -0.0491831 -0.00518949 0.998776 -0.228331 0.85709 0.461802 0.0660904 -0.171259 0.983007 0.067819 -0.732751 0.677109 0.732284 -0.00319753 -0.680992 -0.0843209 0.632323 -0.770102 -0.629337 -0.558545 -0.540335 0.874163 0.128945 0.468201 0.459606 -0.245317 -0.85357 -0.508222 -0.176467 0.842953 0.00844229 -0.0660919 0.997778 0.500819 -0.179985 -0.846632 0.304217 -0.94697 -0.103439 0.923503 0.202165 -0.325994 0.464237 0.647058 0.604813 0.831842 -0.188363 -0.522072 0.846418 0.487113 0.215167 0.0145769 0.675476 0.737238 0.766593 -0.52742 -0.366283 -0.964951 -0.259083 0.0417744 0.0522807 -0.997152 0.0543506 0.0142724 0.237531 -0.971275 -0.928622 0.311867 -0.200999 -0.70945 -0.577935 -0.403325 0.2362 0.333439 0.912704 -0.00926717 -0.992549 0.121494 0.880007 0.474182 -0.0272079 -0.392795 0.881255 -0.262873 0.886918 0.457525 0.0636191 0.298048 -0.774664 -0.55773 0.684657 0.690208 -0.234215 0.774761 -0.088785 0.62599 0.837514 0.0275853 0.54572 -0.343834 -0.86082 0.37519 -0.269542 -0.313049 -0.910685 -0.579976 0.487114 0.652953 0.369097 -0.268065 0.889893 0.460483 -0.603712 0.65076 -0.655727 0.729924 0.192958 0.463091 0.432718 0.7735 -0.379233 -0.594151 0.709343 -0.850716 0.269564 -0.45124 -0.660074 0.358427 0.660176 0.730935 0.324978 -0.600103 -0.827747 0.547766 0.121602 -0.68146 0.497889 -0.536393 0.744561 0.662774 -0.0797542 -0.849598 -0.265719 -0.455605 0.336111 0.577778 -0.743775 -0.137449 0.818887 -0.557253 -0.206256 -0.789747 -0.577718 -0.442331 -0.327585 0.834884 -0.194208 -0.946308 -0.258427 0.347254 -0.36357 -0.864426 0.447957 -0.443887 0.776079 0.541462 0.582738 -0.605999 0.748467 0.243811 -0.616728 0.55863 0.731188 0.391531 0.815988 -0.572755 0.0781985 -0.248124 0.0418074 -0.967826 -0.571152 -0.675535 -0.466303 0.982166 -0.17327 -0.0729881 -0.658136 0.283261 0.697581 -0.958267 0.145177 -0.24627 -0.30013 -0.138084 -0.943851 -0.109108 -0.993991 -0.00877901 -0.6444 -0.626455 0.438524 0.645973 0.203748 0.735667 0.978819 -0.201589 -0.0357029 -0.342252 0.197006 0.918723 -0.0150858 0.286632 -0.957922 -0.137704 0.938756 -0.315872 -0.414277 0.171062 -0.893931 -0.276574 -0.767695 -0.578058 -0.883111 -0.389497 0.261547 -0.988793 -0.00643445 -0.149152 -0.994562 -0.095609 0.0412841 -0.170047 0.142665 -0.975054 -0.20827 -0.315943 0.925637 0.666651 -0.745283 -0.0114435 0.19656 0.949803 -0.24339 0.993605 -0.0858024 -0.0733902 -0.271613 0.854436 0.442905 -0.242096 0.704435 0.667204 0.907412 0.415218 0.0647795 -0.985557 0.147687 -0.0828664 -0.277166 -0.392273 0.877098 0.0538725 0.557906 -0.828153 -0.855806 -0.355351 -0.375928 0.707765 0.498798 -0.50027 -0.955469 0.0945237 0.279543 -0.830531 0.477366 -0.286951 -0.319609 0.23807 0.917155 0.384615 -0.576766 -0.720703 0.72371 -0.658363 0.206888 0.979285 -0.159403 -0.124865 -0.0969934 -0.906288 -0.411381 0.123506 0.00074027 -0.992344 0.309064 0.0717367 -0.948332 0.112499 0.0623595 0.991693 -0.968629 0.116506 0.21951 0.161966 0.812926 0.55939 0.126066 0.854406 -0.504081 0.913239 0.348542 0.210979 -0.524611 0.692042 0.495845 0.333582 -0.125561 -0.934322 -0.0858089 0.415981 -0.905316 -0.447767 0.527832 0.721732 -0.758903 0.584285 -0.287536 0.955968 0.238093 -0.171571 -0.207231 -0.769932 -0.603539 0.8323 -0.0804387 -0.548458 0.829783 -0.384988 0.404035 -0.699418 0.619414 -0.35657 -0.187743 -0.957374 -0.219515 0.403177 -0.66983 0.623519 -0.00251673 -0.304549 0.952493 -0.0172677 -0.999528 0.0254137 0.419202 -0.457062 0.784451 -0.952101 -0.296937 0.0730147 0.637512 0.0850977 -0.765726 -0.153864 0.853919 0.497139 0.204664 -0.475958 -0.855322 0.19474 -0.90247 0.384219 -0.891451 0.198064 -0.407536 0.232192 0.838881 -0.492307 0.936465 0.312575 -0.159158 -0.68811 -0.656804 -0.308406 -0.929392 -0.327983 -0.169287 -0.0363449 -0.533489 -0.845026 -0.990102 -0.0974686 -0.100983 -0.903852 -0.375185 0.205638 -0.830793 -0.275312 0.483722 -0.481997 0.871153 -0.0936582 0.417136 0.417263 -0.807396 0.555926 -0.265672 -0.787632 0.810543 -0.345953 0.472586 0.274956 -0.930883 -0.240533 -0.730081 -0.076472 0.679069 -0.603841 0.788608 0.116072 0.415167 -0.433832 0.799642 -0.181907 0.816755 0.547559 -0.992313 0.092493 -0.0822188 0.990571 -0.0660465 0.120029 -0.23177 0.205487 0.950819 -0.979157 0.203085 -0.00289832 -0.28247 0.135124 0.949712 0.46464 0.33117 0.821241 -0.410181 -0.892954 0.185431 0.678798 -0.674168 -0.291085 -0.212692 0.411626 0.886186 -0.523208 -0.821797 -0.225617 0.164919 -0.986198 -0.014643 -0.627739 0.136678 -0.766331 0.960391 0.131329 -0.245769 0.842178 -0.0728458 0.534257 -0.123323 0.841386 0.526175 -0.312127 -0.837005 -0.449443 0.365952 -0.928347 -0.0652022 -0.148905 -0.481221 0.86386 0.474486 0.860639 -0.184834 -0.1016 -0.478069 -0.872426 0.565099 0.486537 0.666292 -0.690188 0.715078 -0.110921 0.836745 0.49543 -0.233255 0.613453 -0.697951 0.369513 -0.861895 -0.401851 0.309277 -0.482402 0.727073 -0.488521 -0.338083 0.308362 0.889164 0.606221 0.792038 0.071917 0.71792 -0.601863 -0.349789 0.681312 0.208172 0.701768 -0.606903 -0.235464 -0.759095 0.433173 -0.728856 0.530217 -0.164757 0.673422 0.720665 -0.796679 0.217854 0.563775 0.379185 0.651272 0.657315 0.210365 -0.487338 0.847495 -0.929943 -0.317981 0.184649 0.992187 -0.069988 0.10328 0.816748 -0.375055 0.438471 -0.108397 -0.823205 0.5573 -0.521797 0.661504 -0.538647 0.484623 -0.684017 0.545216 -0.868009 -0.466533 -0.170022 0.838251 0.476365 -0.265352 -0.567016 0.358849 0.741431 0.302765 -0.931421 0.201961 -0.14486 0.0576837 -0.987769 -0.716823 0.687746 -0.114763 0.47159 -0.496339 0.728869 -0.298776 0.800078 0.5202 0.372351 -0.530736 -0.761363 0.715205 -0.357054 0.600827 -0.769919 -0.512188 0.380641 0.609788 -0.595046 0.523526 0.688708 -0.484938 -0.538995 0.609039 0.72651 -0.318206 0.744034 -0.619767 0.249605 0.49776 0.498979 -0.709405 -0.856127 -0.384964 0.344746 -0.698587 0.549893 -0.457814 0.537128 0.0285715 0.843016 0.254107 -0.850762 0.460038 -0.283021 -0.879333 -0.382979 -0.606228 -0.486295 -0.629289 0.0501177 0.990778 -0.125885 -0.531539 0.135668 -0.836098 0.504178 -0.724111 0.470604 0.977874 -0.147686 0.148161 0.664602 -0.0949315 -0.741143 -0.725474 0.596632 0.3431 0.457326 -0.00737044 0.889268 0.985822 -0.158895 0.0539163 -0.424816 0.79811 -0.427261 -0.850307 -0.455243 0.264067 0.875083 0.336671 0.347683 -0.660727 0.0921411 -0.744949 0.278913 -0.178852 -0.943514 0.387639 -0.497679 0.77592 -0.0839566 -0.476788 0.875 -0.813597 -0.581115 0.0191211 0.572126 0.750317 0.331204 0.705299 0.491374 -0.510985 -0.0587398 0.503795 0.861824 -0.645773 0.740087 0.187746 0.136381 -0.928422 -0.345591 -0.668718 0.0133972 -0.743396 -0.898302 -0.296445 -0.324304 0.399235 0.710404 0.579602 -0.838933 0.541612 -0.0533615 -0.769755 -0.000717279 0.638339 0.365304 0.480356 -0.797378 -0.623966 0.703303 -0.340634 -0.861404 -0.421936 0.282759 0.606448 0.60838 0.511952 0.829489 0.508528 0.230969 -0.595018 0.802023 -0.0520829 -0.134597 0.976664 0.167365 -0.649356 0.517882 -0.556898 0.31116 0.944304 0.107094 -0.609849 0.739588 0.28477 0.876544 0.114745 -0.467445 -0.782673 -0.438751 -0.441499 -0.23751 0.705243 0.667998 0.483061 0.538265 0.690596 -0.505254 0.779963 -0.369292 -0.298787 -0.249424 -0.921148 -0.237055 -0.957733 -0.162948 0.123838 0.730844 -0.671217 -0.623797 0.390606 -0.676982 -0.800282 -0.579654 0.153459 0.629001 0.100781 -0.770844 -0.819196 0.502852 0.275785 -0.410938 -0.166695 0.896294 0.408258 -0.669547 0.62051 0.607331 -0.486249 0.62826 0.211698 0.937666 0