# vtk DataFile Version 4.0
Generated by libgran
ASCII
DATASET POLYDATA
POINTS 1686 FLOAT
-33.0719 1.91323 6.64736 -31.7473 1.03566 7.74099 -33.8852 2.07761 5.06745 -32.6801 2.91398 6.09201 -34.1493 -1.09867 8.00758 -34.4391 2.68804 4.06392 -31.2624 -0.112174 12.4339 -31.056 -1.80525 12.8899 -31.8735 0.572921 11.472 -31.9868 -0.497928 10.0429 -31.4948 1.16674 10.0839 -30.952 1.30938 8.89907 -30.5228 -3.46054 15.3702 -29.7383 -3.07694 14.3676 -29.7979 -1.9326 14.4078 -29.184 -0.344988 13.9876 -28.5301 -0.0808874 14.6966 -28.5829 0.530289 13.3107 -32.2083 -4.13962 13.4386 -34.1186 -4.90113 14.9379 -33.0981 -4.3159 14.3182 -33.2019 -4.71247 16.0184 -34.9444 -5.37035 14.0005 -32.4907 -5.05864 16.9365 -32.7901 -3.75292 17.5213 -33.0851 -3.35637 18.6217 -31.7941 -3.27745 18.898 -31.3292 -4.77942 21.5719 -32.5052 -3.99913 22.2017 -31.7305 -3.9039 20.5218 -31.096 -5.98408 22.0842 -31.9575 -7.55679 21.8315 -32.2667 -3.95563 23.868 -30.9575 -4.27173 19.202 -31.2885 -8.22416 19.8632 -31.8985 -9.5037 19.6891 -29.9798 -8.43532 19.7601 -28.8731 -8.40679 19.6971 -28.5644 -7.05848 20.8644 -29.3548 -6.46818 22.3033 -28.414 -5.58998 20.9075 -31.028 -10.4544 20.7451 -22.6603 -12.416 23.3732 -23.5895 -12.0262 22.5056 -24.8503 -12.9682 22.4891 -22.2693 -11.5252 25.1096 -23.652 -11.4918 25.544 -26.2735 -13.8967 22.6664 -28.1306 -11.689 19.8555 -27.1189 -11.2067 19.0095 -27.6429 -12.766 20.464 -29.161 -12.4987 20.8012 -26.8909 -13.6716 21.5668 -30.0581 -11.4452 21.5111 -26.1547 -12.545 18.1635 -26.0987 -13.891 17.1305 -25.2255 -15.9903 17.9829 -24.891 -15.9596 16.6961 -26.0861 -15.1621 16.7128 -23.9278 -15.3094 18.8997 -23.0722 -15.548 16.3021 -22.369 -15.0914 19.3533 -22.3526 -16.1335 19.7976 -22.3328 -14.2871 12.4044 -23.3642 -14.7563 12.1933 -23.6255 -13.1743 12.6954 -21.0669 -14.2988 12.8108 -20.9654 -15.2236 11.4409 -20.954 -13.8337 14.6128 -21.7008 -14.3885 15.9486 -36.5169 16.1236 3.84611 -36.9893 15.6412 1.98018 -37.0054 14.6556 1.81152 -35.385 16.5853 4.87087 -34.7328 16.4099 5.7357 -33.7752 16.6775 5.62905 -34.0658 16.173 6.44209 -40.2131 15.2176 1.78466 -41.0867 15.9632 1.11609 -39.2139 16.5132 1.22863 -39.44 14.8254 2.48062 -40.4875 13.4574 2.01612 -41.2383 12.4425 2.49757 -41.9209 11.3664 3.26864 -46.2216 12.0326 3.20154 -46.5366 11.0905 2.57618 -46.9544 13.3378 2.40265 -45.451 13.5757 4.21144 -42.8722 10.876 3.29351 -42.0454 9.80655 2.41349 -42.5455 10.0411 1.20781 -42.3359 9.07335 0.636851 -42.0661 8.33546 2.01012 -42.5679 11.4914 0.21108 -43.9649 10.5403 0.843828 -42.8231 11.8443 -1.05536 -42.2336 6.88635 1.61123 -42.3636 6.90786 3.22641 -44.3147 8.269 -5.41762 -43.6221 7.9638 -6.51085 -44.6084 6.52994 -6.07683 -45.0407 9.7792 -7.02326 -45.8523 9.21799 -7.43559 -45.8809 10.0402 -5.72502 -47.0929 8.83803 -7.93846 -46.6924 9.47902 -6.13736 -45.5537 5.05 -5.65299 -45.2351 10.4 -3.68416 -46.0818 10.3728 -4.72277 -45.1862 10.4121 -2.45802 -45.4137 10.2636 -1.36689 -46.069 9.96468 -0.508613 -45.1352 9.81261 -0.0167481 -47.1336 11.331 -0.634384 -45.2976 11.1362 1.09409 -43.4689 4.45612 -8.44817 -42.4442 4.56489 -9.81289 -42.7118 3.42788 -8.23039 -43.6808 5.70855 -8.05483 -44.0757 6.93505 -8.43425 -45.6886 6.8791 -8.09267 -43.0821 1.90528 -7.58732 -46.8443 6.43791 -8.4395 -45.3063 1.59308 -4.52186 -44.6699 2.75559 -4.79796 -45.8381 3.46426 -4.92311 -43.5193 3.84026 -5.32192 -25.2054 13.5474 19.6031 -25.7324 14.3825 20.4936 -24.3131 14.832 19.9024 -26.5078 12.6171 18.6453 -28.2223 12.7111 20.1533 -28.6626 10.2621 18.2006 -29.1818 11.8991 17.459 -29.1831 9.10671 18.0133 -28.4577 8.38193 18.3666 -28.5158 11.9943 16.7191 -30.691 8.41216 18.4477 -30.0308 9.16986 16.814 -30.873 7.93262 20.0551 -26.2787 4.44874 12.8928 -26.0841 3.3484 12.6825 -26.6091 5.57469 13.5182 -28.1441 4.86551 13.3579 -27.5203 2.545 13.3945 -27.2746 2.28036 11.9363 -27.9001 1.81494 14.7298 -26.9361 1.53972 10.7575 -26.6017 1.75912 9.76073 -29.1336 8.9559 15.6053 -30.3954 8.90105 15.1897 -28.0111 9.22268 14.8183 -30.4869 7.47132 14.1278 -31.628 8.8685 14.2095 -31.0148 6.23627 13.9937 -29.6241 5.76125 13.6541 -33.5984 7.0697 5.68397 -34.7766 6.67608 5.20982 -32.9345 7.89721 6.20658 -32.5882 6.24572 6.78386 -36.4376 6.27655 6.11798 -34.4744 4.56349 6.96048 -37.6016 6.91381 5.82811 -37.6491 6.89273 4.31421 -40.8736 5.90187 5.04589 -39.3461 5.33384 4.88322 -42.0886 6.39473 4.83121 -42.7221 5.80101 3.21229 -38.3546 6.62291 3.5998 -38.6212 4.59735 6.03834 -32.3197 5.97477 11.831 -31.8038 8.38434 11.0469 -32.9543 8.54992 12.3564 -33.0308 8.79194 13.4342 -33.75 7.7109 13.8454 -32.0697 10.3271 13.6736 -34.096 6.34474 14.395 -34.6607 3.76143 9.51779 -34.1056 3.54943 10.7072 -33.9084 4.004 7.69557 -33.3588 3.73459 11.8735 -25.6832 23.2172 28.7751 -26.0651 21.9384 29.3089 -25.6778 22.7883 30.3553 -25.4424 23.3719 27.4766 -25.8703 24.8372 28.0708 -26.6646 25.9985 28.1273 -22.8901 23.5155 28.6801 -22.5643 23.8036 30.9848 -23.4237 24.4173 32.1496 -22.288 23.5573 29.7076 -21.8436 23.2395 28.7408 -23.6861 25.3412 29.2127 -23.3959 24.5796 33.3757 -25.4778 27.487 33.5082 -25.1635 28.4698 34.3498 -26.1947 29.2949 33.5992 -25.7927 26.8202 32.6804 -24.8169 26.1455 32.4214 -23.6242 29.0745 35.4118 -25.5165 25.2426 31.7719 -20.8996 26.0302 35.831 -20.9761 24.7482 36.1754 -20.8124 27.1213 35.7051 -19.8587 27.8675 36.5059 -20.8905 28.614 35.9332 -18.3611 27.6725 37.3583 -18.5076 28.8568 36.8283 -21.8992 29.5027 35.6348 -19.9502 29.6615 35.3457 -27.7373 23.6713 33.5686 -28.2792 25.904 33.9158 -30.3095 24.7856 36.0155 -30.1552 23.6538 35.1684 -29.7367 22.9824 33.4386 -26.4245 23.4597 33.4607 -31.4084 20.6703 31.5488 -32.0288 21.5181 32.9979 -30.1434 20.4825 31.1806 -29.2759 20.1926 30.7763 -32.1668 22.568 34.2497 -33.0479 22.1171 34.1073 -34.8428 22.5449 33.9192 -35.5939 22.4183 32.6232 -35.1724 21.5527 32.1646 -36.6214 23.7595 31.8016 -37.0993 23.5819 33.4457 -37.5736 24.2511 32.4373 -36.2375 21.6537 33.985 -37.1746 24.6106 35.018 -37.3761 25.5955 33.1009 -41.1056 25.1319 36.3618 -40.5626 26.234 35.8533 -39.5938 25.4725 35.3826 -38.1954 25.4657 35.0938 -41.0715 25.3977 34.1768 -37.0832 25.6957 34.7217 -34.2318 7.43603 23.519 -34.0506 6.31285 24.2063 -35.559 7.31444 24.51 -33.041 7.56562 22.3855 -34.2891 8.70102 22.7822 -31.6441 6.55865 21.6692 -30.7402 6.07777 20.639 -31.3033 5.3816 19.9265 -29.7249 5.85425 19.6226 -31.862 4.38356 19.2484 -31.5632 3.75765 20.5056 -27.8469 4.57331 18.5411 -27.6498 5.65678 18.2767 -39.027 7.59749 24.202 -39.2942 6.71268 25.1579 -40.757 6.20754 24.6584 -39.3896 8.96253 24.6946 -40.7504 8.57225 24.2957 -37.5365 5.58839 21.8744 -37.7369 7.04517 22.7777 -36.7324 5.22511 22.5697 -35.9475 4.84834 23.0617 -34.5402 5.51242 22.0454 -34.8974 4.27586 23.2828 -29.6029 15.6664 23.0174 -30.6375 15.63 23.8519 -29.3211 15.4082 24.8765 -28.5979 15.2847 22.1905 -29.5796 14.8775 21.2938 -31.6452 16.3526 24.1921 -31.1744 17.3808 25.5402 -30.0939 18.1159 26.9697 -32.4566 9.85547 21.0468 -31.3133 9.74629 21.6718 -30.9439 10.8956 20.7509 -33.5637 10.588 21.1259 -34.1895 9.48871 21.9167 -29.6944 11.2411 21.329 -29.7262 12.2403 21.3072 -28.9951 19.5158 27.3329 -28.997 17.9444 27.1291 -29.7691 19.6952 29.5194 -31.1749 19.6583 28.4486 -28.6442 16.4366 27.3341 -27.8904 15.3772 28.2193 -30.9273 19.836 26.0807 -31.8767 19.2435 27.1438 -30.8184 21.1602 26.1337 -32.3397 21.8583 25.717 -33.9562 21.6797 25.7789 -33.8619 22.907 23.9932 -6.25487 25.1843 40.8075 -5.28964 25.0874 41.0502 -7.53276 24.8126 40.7401 -5.74797 24.3695 40.5262 -8.3605 26.0672 41.6147 -9.18167 24.6223 41.0408 -9.17863 25.7206 41.1559 -9.18681 26.629 41.5739 -5.12655 23.3455 40.9187 -3.94634 23.8936 40.373 -4.8429 21.6437 41.1457 -9.97932 23.695 39.965 -6.46496 20.0864 42.4341 -6.33456 20.9196 41.1482 -7.47321 19.0772 42.6647 -8.0757 18.1843 42.9741 -4.4703 21.0233 42.1776 -1.34056 25.0707 41.5836 -2.31824 25.2261 40.6958 -2.64182 24.0296 40.6951 -0.0684254 26.4452 41.4579 -2.05491 26.7991 40.1759 -2.86247 22.7911 40.6214 -2.04105 28.6079 40.3158 0.868581 30.6999 40.8502 1.41784 29.4979 41.8273 -1.85182 30.2043 39.8127 2.47058 28.8896 41.2504 -2.91155 29.8078 41.0909 -21.317 33.0841 42.6309 -20.052 32.7032 42.4804 -21.5137 33.3554 44.2999 -22.5436 32.4692 42.9437 -18.9561 31.9688 45.1559 -19.5043 32.5283 46.6005 -18.2464 31.1649 43.7943 -15.7721 30.0071 42.235 -16.6581 29.9922 43.2262 -14.8838 28.6138 42.3226 -17.7285 29.9319 43.3296 -17.7184 28.9155 44.4277 -16.7819 28.3423 43.9992 -13.7816 28.6629 43.2227 -14.6566 28.2787 43.8462 -17.7222 28.2892 45.892 -11.9227 25.2395 44.5568 -13.1832 25.6282 44.7403 -11.6707 25.5941 43.6564 -10.9589 25.3163 44.3015 -13.548 26.7197 45.6369 -14.0892 25.8047 46.5006 -14.1247 28.149 45.2354 -10.8437 26.6539 43.279 -15.6687 28.022 44.5315 -10.3226 28.3919 40.9558 -9.75624 27.1926 40.7844 -11.0591 28.1588 42.3074 -11.1563 29.1536 42.3389 -11.8906 28.4871 40.829 -11.0778 28.6317 43.1883 -20.3907 35.9902 39.565 -20.4032 36.609 37.7624 -19.5964 36.6799 40.379 -19.676 38.2383 39.9741 -19.3977 38.1321 40.9287 -20.0249 38.8666 40.6694 -20.1367 39.9126 40.013 -20.0982 36.1007 36.8226 -21.0991 37.4542 36.9886 -19.0699 39.4845 41.4915 -20.7188 42.4305 43.5796 -22.3239 41.7977 42.9511 -22.635 42.4907 43.8351 -22.3643 40.7991 41.7214 -23.7943 40.843 42.8142 -20.8812 40.628 40.657 -19.1816 40.5305 40.835 -23.0354 44.5405 44.7771 -21.9749 45.0776 43.4102 -22.4503 44.436 45.9665 -23.4122 43.2902 44.897 -21.8543 44.9866 42.1529 -20.8706 46.0354 42.8728 -22.2605 42.2927 47.5546 -23.1162 41.76 50.7624 -22.6739 42.8661 50.1718 -23.9151 43.5233 50.6507 -21.6466 42.5978 49.0326 -20.3111 43.7517 48.7336 -24.961 43.9977 50.2961 -16.7743 29.1283 39.8054 -15.9852 28.7023 38.8238 -16.1873 30.0196 38.393 -15.7228 27.186 39.1138 -17.2355 30.0997 37.306 -14.8178 26.9041 40.4739 -13.3748 27.7736 40.6415 -18.5616 29.8055 36.201 -18.7883 30.7471 34.8601 -18.0581 30.0687 34.9417 -17.874 30.9521 34.5108 -19.2075 32.036 36.3679 -18.8664 31.6606 37.5014 -21.8139 30.5652 37.5417 -22.2547 31.5414 36.2709 -22.6353 34.7167 41.3677 -24.1788 33.9049 41.4633 -21.8647 33.8151 40.7665 -22.1354 33.4893 39.5573 -25.1195 32.2287 4
[...]
POINT_DATA 1686
FIELD FieldData 1
normals 3 1686 double
-0.472229 0.521784 -0.710451 0.852402 -0.355784 0.383182 -0.341034 -0.357409 -0.869456 0.864023 0.478964 0.155103 -0.898137 -0.396484 -0.190131 -0.212869 0.967838 -0.134078 -0.504244 0.863409 0.0162111 -0.297861 -0.829664 0.472161 -0.106834 -0.178314 -0.978157 -0.0065009 -0.892535 -0.450931 0.485554 0.772133 -0.409936 0.0571717 -0.629496 -0.774897 -0.25808 -0.907026 0.332713 0.526488 -0.523417 -0.669959 0.46682 0.620923 -0.629709 0.147125 0.966685 0.209461 -0.506747 0.702585 -0.499582 0.453946 -0.0914088 -0.886328 -0.858169 0.49433 0.138507 -0.988922 0.0853758 -0.121425 0.0316035 0.67061 -0.741137 -0.0722161 0.274034 0.959005 0.163077 -0.554591 -0.815987 0.78338 -0.620196 -0.0409017 0.483983 0.685523 0.543893 -0.778976 -0.288972 0.5565 0.512064 -0.210054 0.832867 0.84971 -0.459128 0.25922 -0.326243 0.321158 0.889057 0.448465 0.416394 -0.790883 -0.616543 -0.745535 0.253086 -0.244935 -0.827175 -0.505755 0.56467 -0.277654 0.77721 0.324474 -0.784225 -0.528874 0.774209 0.356811 0.522768 0.164197 -0.922736 0.348708 0.534515 -0.567973 -0.62586 0.572182 0.596498 0.562849 -0.263481 0.751813 0.604447 -0.526868 -0.161505 0.834461 0.413852 0.716692 -0.561319 0.706331 -0.0279344 0.707331 -0.341417 0.907252 -0.245617 -0.587724 -0.517431 -0.62197 -0.673116 -0.424565 0.605524 0.799232 0.595779 0.0792116 -0.58341 0.629139 0.513631 -0.750097 -0.503958 -0.428231 -0.397064 -0.900518 0.177225 0.61463 -0.418254 -0.6688 0.884775 -0.176499 0.431301 -0.633399 0.0907452 0.768486 -0.132777 -0.72908 0.671426 -0.263624 0.962843 -0.0586115 0.349498 -0.920035 -0.177162 -0.293414 -0.425941 -0.855852 0.554721 0.0170266 0.831862 0.889263 0.0477523 -0.454897 -0.305931 0.845217 -0.438196 0.743021 0.663851 0.0849803 0.929472 0.363847 0.0608005 0.815707 -0.445845 0.36857 0.799248 0.596209 -0.0757425 0.848315 -0.23584 -0.474069 -0.183085 -0.705009 -0.685159 -0.444359 0.876948 -0.183053 0.417655 0.224199 0.880511 0.519152 -0.700674 -0.489426 -0.304785 0.240834 0.921469 -0.441976 -0.79563 0.414283 0.189046 0.13259 0.972976 -0.283276 -0.349863 -0.892945 -0.267129 0.635659 -0.724279 0.942871 0.329109 0.0517899 -0.290641 -0.504473 0.81304 0.666989 -0.236948 0.706386 0.95763 0.267526 -0.106655 -0.116244 -0.826095 0.551412 -0.989847 -0.0804888 -0.117155 0.882909 0.469521 -0.00461854 0.889298 0.433883 0.144549 -0.158182 -0.934136 -0.319951 -0.592665 -0.0806777 0.801398 -0.0899403 -0.995485 -0.0303312 -0.51035 0.857344 0.0671172 -0.825338 -0.0847372 -0.558244 -0.222444 0.447824 -0.866009 -0.47684 0.878949 0.00853406 0.861298 -0.505092 -0.0552088 0.0345356 0.564342 0.824818 -0.465525 0.798893 -0.380863 -0.25599 -0.168859 -0.951817 0.0138397 -0.906745 0.421453 0.4431 0.651441 -0.615863 -0.953896 -0.299663 0.0168856 -0.698293 -0.298558 -0.650576 -0.181315 -0.54237 -0.820341 -0.311356 -0.520862 0.794833 -0.163485 0.871881 0.461623 0.529089 0.566681 -0.631616 -0.457131 -0.867174 -0.197586 -0.130946 0.67413 0.726913 -0.942493 0.112912 0.314575 -0.709182 -0.413098 0.571324 -0.298095 -0.492871 -0.817446 0.102368 0.148119 0.983657 -0.488214 -0.612768 0.62142 0.33853 -0.718413 0.607684 -0.508225 -0.74566 -0.430927 -0.289623 0.730502 0.618454 0.0621001 -0.879044 0.472679 -0.717467 0.580135 0.385597 0.216392 0.428059 0.877462 -0.347064 0.786162 -0.511367 -0.378831 0.895558 0.233371 -0.717738 0.407082 0.564922 0.306946 0.515849 -0.799802 0.0394088 -0.621158 0.782694 0.505916 0.845345 -0.171584 -0.900846 0.381159 -0.207833 -0.712097 -0.437114 0.549408 -0.409772 -0.90144 -0.13962 -0.44356 -0.00407612 -0.896235 -0.327869 0.898211 -0.292777 0.964296 0.264301 0.0166787 -0.203863 0.972972 -0.108466 0.186278 0.820373 -0.540637 -0.412918 -0.527266 -0.742623 -0.939872 0.307893 0.147791 0.479411 0.757355 -0.443371 -0.889527 -0.402993 -0.215263 -0.789069 -0.133164 -0.599698 0.414706 -0.907586 0.065619 -0.104507 0.729429 -0.676027 -0.935211 -0.247795 -0.252939 -0.209836 -0.97257 0.10038 -0.770531 0.634196 0.0638518 -0.572658 -0.446748 0.687371 0.0874841 0.310946 -0.946393 0.390611 -0.0327953 0.919972 -0.887667 0.3811 0.258476 -0.693082 -0.719248 0.0481569 0.557284 0.744847 0.36693 -0.977778 0.0356658 0.206589 -0.743104 -0.0841489 0.663864 -0.497397 -0.348789 -0.794319 0.363295 -0.645909 0.67143 0.835843 -0.391847 -0.384476 -0.501415 0.611247 -0.61234 0.809753 -0.524904 -0.262252 -0.45208 -0.57975 -0.677875 0.312756 0.791688 -0.524798 0.360563 -0.849989 -0.384074 -0.780477 0.547197 -0.302376 -0.888394 -0.385057 0.249974 0.502236 -0.860075 -0.0896087 0.4 -0.0536533 0.914943 -0.77823 -0.447274 0.440799 0.263873 0.881165 -0.392327 0.610237 -0.770328 0.184948 -0.882778 0.0477435 0.467358 0.932206 -0.322288 -0.164691 -0.281205 0.589513 -0.757231 0.233733 -0.610589 -0.756671 -0.628508 0.500604 0.595293 0.899053 -0.0674237 0.432617 -0.586417 -0.00773925 -0.809972 -0.0470738 -0.585986 -0.808953 0.939196 -0.34077 -0.0422652 -0.174135 -0.669069 0.722512 0.390704 -0.76142 0.517292 -0.451577 0.547332 0.704632 -0.698844 -0.381749 0.604884 0.622336 0.623764 0.472881 -0.0968782 -0.457269 0.884036 0.338771 0.911447 -0.233449 -0.249123 -0.908898 -0.334429 0.386099 0.00535971 -0.922442 0.941279 -0.206637 0.267011 0.366238 0.237207 -0.899779 -0.194512 0.391795 0.899256 -0.372783 0.637867 -0.673913 -0.754699 -0.640922 -0.140173 -0.36735 0.208961 0.906305 0.613603 -0.483084 -0.624597 0.185681 0.982141 -0.0303734 -0.979974 0.179189 0.0868457 0.71905 0.651022 0.243183 0.159412 -0.855427 -0.492781 -0.700019 -0.241689 0.671982 0.116909 0.60919 -0.78436 0.327433 -0.927087 -0.182478 -0.300768 -0.512886 -0.804044 0.727794 0.403958 0.554196 0.471105 -0.849597 -0.237161 0.785461 0.133158 0.604417 -0.24575 0.958244 -0.146201 -0.78596 0.182806 -0.590634 0.189811 -0.491906 -0.849706 0.753853 0.471553 0.45754 -0.889394 -0.410981 0.200184 0.127863 0.443659 -0.887027 0.0513312 -0.838418 -0.542604 -0.0406387 0.647356 0.761104 0.994302 0.0988976 0.0397726 -0.0374976 0.845339 -0.532913 0.503276 -0.293901 0.812611 0.356815 0.890417 0.282562 -0.97115 0.0433797 0.234492 0.977822 0.20219 -0.0546212 0.542582 -0.492494 -0.680482 0.856061 -0.135917 -0.498685 0.163779 -0.97641 0.140711 -0.00949219 -0.155397 -0.987807 0.427994 -0.516001 -0.742 0.770227 0.280923 0.572566 0.451162 -0.760268 -0.467382 -0.16926 0.0875894 0.981672 0.813878 0.572518 0.0991273 0.053595 -0.862413 -0.503361 0.0313009 0.962311 0.270143 -0.849816 0.511367 0.127736 -0.94512 -0.0835419 -0.315864 -0.194016 0.043107 0.980051 0.227523 -0.822435 0.521377 -0.584024 -0.436962 0.684091 0.106185 0.259319 0.959937 -0.368151 0.928503 -0.0484419 -0.44952 -0.807631 0.38166 -0.181452 0.769399 0.612454 0.565688 0.415938 0.712034 -0.952827 -0.261688 0.153755 -0.409772 0.840409 -0.354683 0.558972 0.0789033 -0.825424 0.839428 -0.0856991 0.536672 -0.348542 -0.813764 0.465087 0.272805 0.315725 -0.908788 0.64706 0.615833 -0.449514 0.828286 -0.507349 0.23778 -0.680096 0.494249 0.541468 0.543775 -0.48624 -0.684017 -0.704336 0.649162 -0.287228 0.85311 -0.520733 -0.0322583 0.0507733 0.0398566 -0.997915 -0.613863 -0.736026 0.285374 0.964516 -0.263378 -0.0184569 0.0551895 -0.262012 -0.963485 0.353963 -0.887923 0.293774 -0.393921 0.470981 -0.789305 0.591052 0.612485 0.524899 0.394196 -0.136287 0.908865 -0.661434 -0.74853 0.0469927 -0.801336 0.243395 -0.54646 -0.841155 -0.299049 0.450586 -0.519658 -0.0912375 -0.849489 0.942668 0.333628 -0.00839448 0.377492 -0.175997 0.909134 -0.138582 -0.696904 0.703647 0.923445 0.320131 -0.21158 0.48389 0.34395 -0.804704 0.12668 -0.892607 0.432671 0.0577253 -0.10741 -0.992538 -0.976897 -0.143839 -0.158059 0.339519 -0.365646 0.86662 0.94725 -0.27438 0.165629 -0.0344634 -0.681491 -0.731014 -0.0307887 0.866457 0.498302 0.501627 0.16167 0.849843 0.578882 0.573522 0.579627 -0.928904 -0.228242 0.29162 0.214368 -0.337423 0.91662 0.583748 0.811924 -0.00426262 -0.17818 0.960786 -0.212467 -0.803967 -0.13852 0.578316 0.665748 -0.466483 0.582386 0.633962 0.532774 0.560574 0.519871 0.826366 -0.216458 0.517948 -0.745056 -0.420265 0.54679 -0.364938 0.753552 -0.85901 -0.401791 -0.317278 -0.165093 -0.762742 0.625275 0.918915 -0.296675 0.259958 0.792238 0.605508 -0.0756188 -0.157166 0.0130168 0.987486 -0.683356 0.718667 0.12862 -0.837937 -0.0205152 -0.545382 -0.778568 -0.15807 0.607326 -0.432843 -0.778294 -0.454869 -0.458329 -0.717873 -0.524017 0.506903 -0.814825 -0.281265 -0.819559 0.346186 0.456595 0.965232 -0.096953 0.242751 -0.00817785 0.908397 0.418029 -0.829353 -0.53655 -0.155841 -0.826313 0.561734 -0.0407511 -0.818136 -0.346662 -0.45878 -0.343809 -0.927029 0.14971 0.836402 -0.378967 -0.396 0.627459 -0.774803 0.0773039 0.031704 -0.390739 -0.919956 -0.0122171 -0.953791 0.300223 0.118183 -0.120642 -0.985636 -0.996035 -0.0553805 -0.0696283 0.393545 -0.837527 0.379039 -0.25486 0.154431 0.954567 0.833151 0.526143 0.170393 -0.144534 0.68156 -0.717346 -0.468115 -0.514973 -0.718103 0.43898 0.848323 -0.29605 0.407867 0.891451 0.197382 0.247463 -0.723532 0.64441 -0.394004 0.917313 -0.0574314 -0.213467 0.260754 -0.941509 0.335792 -0.941263 0.0356087 -0.583231 -0.679123 0.445684 0.716952 0.33297 -0.612463 -0.476499 0.282597 0.832519 -0.604001 -0.000105824 0.796983 0.661045 -0.380949 0.64645 0.407306 0.271423 0.872027 -0.622606 -0.614794 -0.484139 0.808741 -0.264766 -0.525201 0.260528 0.294745 0.919375 -0.0989864 -0.539165 -0.836363 0.432561 -0.739217 -0.516188 -0.45352 -0.754093 0.475041 0.455747 -0.654019 0.603783 -0.616853 0.69381 -0.371645 -0.606709 -0.322646 0.726501 0.329777 -0.895815 0.29793 0.646402 0.703092 0.296356 -0.228612 0.318883 0.91981 0.602877 -0.303639 0.737796 0.711749 -0.277844 0.645148 -0.548675 0.110906 0.828647 0.963825 0.0768042 -0.255231 0.252075 0.354648 -0.900379 0.183813 0.98061 0.0679464 -0.357331 0.0656257 0.931669 -0.760511 0.448627 -0.469422 -0.136866 0.983025 -0.122184 -0.783439 -0.575556 -0.234434 -0.815068 0.288875 0.50221 -0.248711 -0.910344 0.330783 0.0785478 -0.521879 0.849396 -0.0186406 0.472888 0.880926 -0.752917 -0.193609 -0.628992 -0.0971884 0.994766 0.0315308 0.246718 -0.134284 0.959739 0.234242 0.484487 -0.842854 0.547613 0.823952 -0.145679 -0.627184 0.734451 -0.259272 -0.348954 0.628261 0.695355 0.278229 -0.106189 0.954627 0.166501 0.93988 0.298167 0.0708139 -0.99277 -0.0969138 -0.93013 0.360675 0.0690815 0.67684 0.7241 -0.132538 0.992645 0.0297655 0.117347 -0.61241 -0.603036 -0.511177 -0.92356 0.0898961 0.372768 0.57202 -0.395549 -0.718564 -0.85803 -0.351691 0.374297 0.911047 0.224463 -0.345846 0.78857 -0.321967 0.523923 -0.23048 -0.540657 0.809054 0.829929 -0.0035783 -0.557857 0.815515 0.436158 0.380397 -0.146382 -0.709668 -0.689161 -0.709288 -0.0874073 -0.699479 0.274446 0.961384 0.0205057 0.728287 -0.234534 0.643888 0.470552 -0.834933 0.285427 0.912864 0.271256 -0.305122 -0.328394 0.928424 0.173743 0.114377 -0.53963 -0.834096 -0.47298 0.130497 -0.871355 -0.717451 -0.453993 -0.528351 0.72002 0.458705 -0.52073 0.0690757 -0.884751 -0.460918 -0.133034 0.432573 -0.89173 0.193235 -0.631524 0.750891 -0.915241 -0.352458 -0.19521 0.711788 0.349613 0.609203 0.731269 0.519908 -0.441521 -0.410793 0.0582138 -0.909868 0.184117 0.883385 -0.430965 0.91429 0.205015 -0.349347 0.730172 -0.678371 0.0816181 0.806413 0.268966 0.526645 -0.465358 -0.644343 0.606848 -0.737663 0.51793 -0.433131 0.296824 0.458311 -0.837763 0.977609 -0.00466292 -0.210378 -0.565856 -0.81647 -0.114822 -0.207008 -0.896881 -0.390835 -0.0637409 0.571069 -0.818423 -0.374883 -0.859685 0.346994 -0.974359 -0.224811 -0.00924902 -0.797417 0.555044 -0.236755 -0.316876 -0.439102 -0.840701 -0.0612882 -0.809357 0.58411 -0.504227 -0.0737172 0.860419 0.358007 -0.925734 0.121846 0.675978 0.0489834 -0.735292 0.0558196 -0.733363 -0.677541 -0.620158 -0.782348 0.0577496 -0.556153 0.831079 -0.00140095 -0.651114 -0.309185 0.693149 0.074587 0.982152 0.172667 0.625543 0.283483 0.726865 0.259155 -0.646929 0.717162 -0.366388 -0.930412 -0.00970259 0.124945 -0.977676 -0.168931 0.951582 0.269073 -0.148634 0.959683 -0.273007 0.0669019 0.370849 0.916368 0.150802 0.121876 -0.0389488 0.991781 0.776713 0.107251 -0.620656 0.606907 -0.267308 0.748472 0.127478 0.218117 -0.967561 -0.543401 0.252368 0.80064 0.61598 0.663768 0.424241 -0.293525 -0.492995 0.819023 -0.929916 0.366757 0.0273009 0.993765 -0.00549656 -0.11136 -0.00452371 0.599119 0.800647 0.0940099 0.988911 -0.11497 -0.346549 -0.89907 -0.267539 0.0985336 0.389793 -0.915616 -0.178856 -0.0754584 0.980977 -0.0547211 -0.24809 -0.96719 -0.920224 -0.333027 -0.205623 0.0506185 0.123664 -0.991032 -0.439407 0.896052 -0.0633492 -0.129458 0.552109 0.82366 0.944861 -0.310208 -0.104925 0.218988 -0.349512 0.910981 -0.18373 0.648718 -0.738518 -0.851226 -0.420728 -0.313691 0.924958 0.126693 -0.358331 0.0356506 0.00129278 0.999363 -0.18525 0.860925 0.473804 0.150513 -0.164004 0.97491 0.12869 -0.735736 0.66493 0.693626 0.0268026 -0.719836 -0.216592 0.666642 -0.713215 -0.745313 -0.517662 -0.420159 0.954745 0.0857628 0.284791 0.26749 -0.220742 -0.937935 -0.332046 -0.198734 0.92209 0.202986 -0.0692066 0.976733 0.45855 -0.185849 -0.869018 0.270828 -0.954451 -0.1252 0.890481 0.238991 -0.387205 0.473298 0.67321 0.568135 0.807549 -0.16103 -0.567392 0.831446 0.534878 0.150341 0.0238968 0.695909 0.717733 0.769456 -0.498411 -0.399404 -0.947641 -0.297115 0.117041 0.0977152 -0.99302 0.0660465 -0.0699832 0.230962 -0.970443 -0.95315 0.273079 -0.130124 -0.736365 -0.586025 -0.338145 0.233541 0.355614 0.904985 0.0369407 -0.990291 0.13401 0.877897 0.394808 0.270968 -0.278498 0.943507 -0.179534 0.85766 0.361895 0.36531 0.400231 -0.707379 -0.582606 0.754399 0.652889 0.0679594 0.588188 -0.257039 0.766789 0.646825 -0.141191 0.749455 -0.468487 -0.878221 0.0961652 -0.00918535 -0.127023 -0.991857 -0.714646 0.438828 0.544713 0.084046 -0.436376 0.89583 0.221312 -0.739352 0.635909 -0.653452 0.743884 0.140133 0.241235 0.252411 0.937067 -0.590844 -0.666062 0.455262 -0.674319 0.419391 -0.607787 -0.805438 0.301105 0.510495 0.885483 0.345818 -0.310371 -0.802772 0.596093 -0.0151754 -0.475746 0.643179 -0.599988 0.768194 0.590188 0.248105 -0.697142 -0.102989 -0.709497 0.570766 0.641394 -0.512679 0.0660746 0.90861 -0.412385 -0.0937117 -0.669634 -0.736755 -0.670598 -0.39754 0.626306 -0.18048 -0.872828 -0.453429 0.544178 -0.273309 -0.793204 0.193431 -0.597484 0.778201 0.724658 0.59952 -0.339775 0.903111 0.244805 -0.35279 0.475365 0.603509 0.64016 0.734695 -0.651573 0.188882 0.0566937 0.247162 -0.967314 -0.460045 -0.544605 -0.701259 0.953011 -0.25763 0.159366 -0.825561 0.212459 0.522791 -0.832935 0.284599 -0.474577 -0.00737389 0.0721401 -0.997367 -0.164064 -0.968219 -0.188775 -0.778116 -0.608734 0.154852 0.428856 0.0448664 0.902258 0.936073 -0.29231 0.19576 -0.569903 0.114084 0.813754 0.265768 0.392608 -0.880469 -0.0206384 0.974531 -0.223299 -0.137538 0.293382 -0.94605 -0.116899 -0.681151 -0.72275 -0.943419 -0.328908 -0.0421887 -0.904791 0.0663152 -0.420662 -0.971635 0.000893536 -0.236485 0.113538 0.281979 -0.952679 -0.473858 -0.408448 0.780147 0.596386 -0.800953 0.0528937 0.314616 0.948457 -0.0380299 0.967093 -0.17455 0.185107 -0.331802 0.815991 0.473356 -0.273129 0.731132 0.625177 0.923296 0.311605 0.224558 -0.93413 0.256391 -0.248322 -0.454364 -0.354361 0.817301 0.253392 0.507507 -0.823547 -0.821364 -0.271747 -0.501512 0.833311 0.393196 -0.388574 -0.967502 0.214557 0.133812 -0.968447 0.00989832 -0.249024 -0.313845 0.546062 0.776735 0.526124 -0.676698 -0.515047 0.938375 -0.212034 0.272935 0.964428 0.108035 -0.241261 0.121163 -0.986513 -0.110051 0.0841963 -0.284101 -0.95509 0.198158 -0.142945 -0.969691 -0.027813 0.0712905 0.997068 -0.970607 0.229379 0.072848 0.175674 0.800382 0.573173 0.294767 0.821521 -0.488073 0.909629 0.247877 0.333364 -0.507402 0.751082 0.422397 0.440078 -0.172625 -0.88121 0.0831352 0.41201 -0.907379 -0.478713 0.58288 0.656571 -0.611879 0.689687 -0.387216 0.990839 0.128898 -0.0402919 -0.234925 -0.62253 -0.746503 0.866832 -0.0941275 -0.489634 0.736649 -0.553002 0.389278 -0.592064 0.753557 -0.285677 -0.246773 -0.866905 -0.433104 0.259352 -0.82181 0.507312 -0.130184 -0.458875 0.878912 -0.121027 -0.975902 -0.181573 0.23955 -0.645738 0.725009 -0.972702 -0.216683 -0.0830583 0.724634 0.178118 -0.665718 -0.148988 0.747148 0.647745 0.265209 -0.304603 -0.914812 0.13841 -0.968154 0.208616 -0.847988 0.312137 -0.428354 0.321924 0.868171 -0.377683 0.965074 0.247414 -0.0861274 -0.692366 -0.505795 -0.514587 -0.913851 -0.174066 -0.366847 0.0543467 -0.297762 -0.953092 -0.96789 0.0370897 -0.248622 -0.963706 -0.266914 -0.00524838 -0.911087 -0.300607 0.282057 -0.402195 0.911918 0.081513 0.562807 0.563599 -0.604653 0.650811 -0.112365 -0.750879 0.702971 -0.53965 0.463259 0.229413 -0.928847 -0.290884 -0.769794 -0.0733758 0.634061 -0.546653 0.822696 0.156015 0.335641 -0.532141 0.777285 -0.226249 0.755621 0.614694 -0.931213 0.230278 -0.282514 0.923044 -0.209201 0.322837 -0.460621 0.117072 0.879842 -0.926425 0.303235 -0.223127 -0.514047 0.0529938 0.856124 0.283877 0.147831 0.947396 -0.511221 -0.856172 -0.0749824 0.681197 -0.704058 -0.200681 -0.426051 0.31562 0.847859 -0.47723 -0.745047 -0.466 0.0912017 -0.989706 -0.11029 -0.403958 0.281097 -0.870519 0.997287 0.045942 0.0575233 0.639378 -0.229843 0.733735 -0.181675 0.802835 0.567847 -0.254424 -0.746674 -0.614611 0.295266 -0.951119 -0.0905019 -0.43354 -0.555305 0.709704 0.592692 0.80359 0.0543938 -0.0218164 -0.534813 -0.844689 0.38496 0.32593 0.863467 -0.573419 0.799161 -0.180369 0.903297 0.420438 0.0853601 0.427187 -0.807106 0.407542 -0.943992 -0.328533 0.0307318 -0.274747 0.827261 -0.490054 -0.549081 0.235725 0.801838 0.614972 0.711097 0.340809 0.744524 -0.624525 -0.235907 0.479882 0.0517351 0.875806 -0.39476 -0.0792625 -0.915359 0.224832 -0.828867 0.512279 -0.309993 0.591587 0.744264 -0.904748 0.216556 0.366789 0.226413 0.515091 0.826691 -0.082128 -0.639729 0.7642 -0.962455 -0.229895 -0.144318 0.91064 -0.204185 0.359227 0.625461 -0.493856 0.604073 -0.3305 -0.870305 0.365156 -0.285665 0.781245 -0.555024 0.291856 -0.796085 0.530159 -0.805139 -0.363351 -0.468751 0.895772 0.441801 0.0490325 -0.740466 0.280883 0.610586 0.202303 -0.973162 0.109682 0.127748 0.227979 -0.965249 -0.634829 0.755521 -0.1618 0.330162 -0.523467 0.785478 -0.252224 0.846877 0.468168 0.40821 -0.579512 -0.705358 0.603606 -0.406676 0.685766 -0.853402 -0.431452 0.292497 0.485793 -0.634204 0.60149 0.700067 -0.558279 -0.445231 0.708999 0.656974 -0.25633 0.658727 -0.662152 0.357259 0.627029 0.459562 -0.628996 -0.92003 -0.327344 0.215386 -0.585813 0.598583 -0.546371 0.410925 -0.0045287 0.911658 0.129391 -0.86442 0.485834 -0.281533 -0.859892 -0.425823 -0.569646 -0.445718 -0.690535 0.153801 0.979495 -0.130135 -0.410713 0.162791 -0.897114 0.375715 -0.75467 0.537877 0.936195 -0.230096 0.265696 0.737412 -0.164341 -0.655145 -0.715363 0.654061 0.245887 0.346272 -0.0263736 0.937763 0.953678 -0.245339 0.174092 -0.319835 0.822807 -0.469781 -0.903074 -0.396544 0.164954 0.850759 0.279156 0.445287 -0.568061 0.141502 -0.81073 0.367799 -0.21679 -0.904282 0.241122 -0.525802 0.815716 0.0883382 -0.527625 0.844872 -0.680201 -0.73178 0.042715 0.433047 0.835183 0.339028 0.546148 0.652184 -0.525717 -0.0886128 0.436669 0.895247 -0.759542 0.587176 0.279857 0.285207 -0.865724 -0.411314 -0.716954 -0.0844735 -0.691984 -0.845733 -0.449225 -0.28798 0.296779 0.766166 0.57001 -0.931712 0.358649 0.0572998 -0.700963 -0.163773 0.694139 0.198658 0.556033 -0.80707 -0.785224 0.549563 -0.285315 -0.73802 -0.62297 0.259296 0.570394 0.671864 0.472493 0.830326 0.450648 0.327834 -0.52851 0.841016 -0.115623 -0.0867367 0.983534 0.158548 -0.541465 0.561483 -0.625741 0.365352 0.918883 0.148904 -0.584603 0.782781 0.213294 0.921663 0.0575763 -0.383696 -0.769603 -0.367168 -0.522397 -0.246741 0.692934 0.677467 0.477741 0.542798 0.690749 -0.527439 0.771357 -0.356114 -0.270799 -0.231974 -0.934268 -0.0460643 -0.977061 -0.207918 -0.0796786 0.772349 -0.630182 -0.74651 0.282064 -0.602629 -0.646533 -0.743054 0.172819 0.526889 0.274482 -0.804393 -0.874913 0.302289 0.37835 -0.281432 -0.300937 0.911171 0.59348 -0.603226 0.532822 0.742129 -0.381696 0.550956 0.0388223 0.945626 0.322932 -0.8005 0.0471049 -0.597479 