# vtk DataFile Version 4.0
Generated by libgran
ASCII
DATASET POLYDATA
POINTS 1686 FLOAT
-31.8137 1.19471 6.69092 -30.6641 0.697726 8.15802 -32.2883 1.00102 4.98161 -31.4234 2.14472 6.05175 -32.8014 0.495962 9.18545 -32.7263 1.35687 3.81196 -31.3728 0.0981947 12.883 -31.5086 -1.5188 13.5786 -31.6328 0.734772 11.7449 -31.4128 -0.474724 10.4446 -31.0085 1.21335 10.4017 -30.1814 1.25371 9.38533 -31.6842 -2.78304 16.3192 -30.6824 -2.66107 15.4534 -30.5818 -1.52633 15.3232 -29.705 -0.101428 14.799 -29.0586 0.212815 15.4944 -29.0094 0.618116 14.0348 -33.0609 -3.58244 14.2541 -35.3163 -3.73641 15.4518 -34.1212 -3.472 14.9324 -34.5473 -3.47742 16.6286 -36.0558 -4.2181 14.4507 -34.0703 -3.74235 17.7106 -34.1715 -2.31067 17.9874 -34.4631 -1.77747 19.0295 -33.1808 -1.79451 19.3534 -33.1286 -3.17227 22.0793 -33.8899 -2.01995 22.7729 -33.2416 -2.19707 21.0467 -33.3343 -4.45642 22.3563 -34.6174 -5.57545 21.739 -33.5701 -2.10382 24.4239 -32.517 -2.85583 19.8156 -34.0438 -5.91238 19.6747 -34.9647 -6.86297 19.1382 -32.8491 -6.46845 19.4973 -31.7904 -6.79446 19.4483 -31.1769 -5.98576 20.9468 -31.8655 -5.53823 22.486 -30.5548 -4.71949 21.3832 -34.4955 -8.27705 19.8845 -26.699 -11.7374 21.9677 -27.5365 -11.0328 21.2128 -28.8731 -11.8007 20.8946 -26.3338 -11.3994 23.8948 -27.7313 -11.3451 24.2764 -30.3815 -12.5919 20.761 -31.8385 -9.5176 18.6552 -30.7062 -8.90889 18.0903 -31.4811 -10.7753 18.8971 -32.9945 -10.4855 19.2373 -30.8966 -12.0234 19.7351 -33.7931 -9.64288 20.2721 -29.7517 -10.0211 16.9554 -29.6946 -10.9984 15.5685 -28.9815 -13.3062 15.7862 -28.5085 -12.8787 14.6191 -29.6898 -12.0755 14.7745 -27.8113 -12.9959 17.0202 -26.6465 -12.4749 14.569 -26.2794 -12.9461 17.5979 -26.2305 -14.0775 17.5656 -25.5465 -10.0087 11.529 -26.5316 -10.393 11.0703 -26.922 -9.14373 12.1237 -24.3094 -10.1362 11.9993 -24.0671 -10.4454 10.3906 -24.3361 -10.3788 13.8477 -25.2149 -11.3591 14.805 -36.2502 14.6675 2.58366 -36.0646 14.1195 0.685571 -35.8611 13.1478 0.565695 -35.5654 15.3176 3.86936 -35.1749 15.2558 4.89297 -34.2891 15.6904 5.05553 -34.7135 15.137 5.77219 -38.9637 13.1057 -0.38428 -39.7397 13.7021 -1.28332 -38.1024 14.5764 -0.669306 -38.3566 12.8395 0.508113 -38.9643 11.3187 -0.200661 -39.5798 10.159 0.11817 -40.2251 8.94293 0.686867 -44.3001 9.09829 -0.782588 -44.1847 8.26549 -1.60171 -44.8843 10.4287 -1.6586 -44.1761 10.5463 0.589882 -41.0503 8.32162 0.405704 -39.8399 7.44677 -0.203603 -39.9304 7.72491 -1.49712 -39.4394 6.82404 -2.00088 -39.5664 6.01333 -0.648189 -39.7734 9.22766 -2.39964 -41.201 8.12999 -2.28316 -39.6474 9.639 -3.66788 -39.4298 4.58866 -1.13684 -40.0997 4.47856 0.334684 -39.4807 6.27136 -8.493 -38.4972 6.09129 -9.36959 -39.4112 4.55209 -9.25744 -39.9099 7.79688 -10.1893 -40.5206 7.18747 -10.8212 -41.0856 7.90481 -9.15711 -41.5376 6.72374 -11.65 -41.6963 7.2954 -9.78898 -40.2758 2.96999 -9.14427 -41.0429 8.20596 -7.00794 -41.5777 8.15977 -8.23608 -41.3265 8.1495 -5.81533 -41.8502 7.90603 -4.8505 -42.7077 7.49113 -4.26047 -41.9642 7.37783 -3.50445 -43.8098 8.77437 -4.65352 -42.5978 8.59604 -2.44294 -37.4637 2.7319 -11.2726 -36.0837 3.04529 -12.2327 -36.7286 1.72264 -10.9275 -37.9101 3.93484 -10.9236 -38.3157 5.13835 -11.3609 -39.946 4.91445 -11.4765 -37.1722 0.125845 -10.5776 -40.9155 4.39066 -12.1369 -39.9919 -0.528486 -8.16849 -39.4103 0.690256 -8.26408 -40.5855 1.32002 -8.58762 -38.2699 1.87977 -8.50788 -26.0324 12.8579 19.5129 -26.4449 13.8962 20.2338 -24.8671 13.8462 19.9619 -27.3324 12.2791 18.307 -29.1913 13.0229 19.3403 -29.9599 10.6559 17.649 -29.8148 12.1367 16.5152 -30.7262 9.64048 17.4993 -30.3529 8.87245 18.1679 -29.0161 11.8838 15.9692 -32.4237 9.39508 17.556 -31.1953 9.6564 16.1062 -33.1254 9.28359 19.0863 -26.6782 4.42357 12.9811 -26.4766 3.30475 12.9594 -27.016 5.65883 13.339 -28.5342 4.90191 13.4244 -27.877 2.614 13.8408 -27.6891 2.1373 12.4287 -28.2362 2.01467 15.2451 -27.3839 1.29979 11.307 -27.1241 1.46042 10.2773 -30.0262 9.11621 15.2981 -31.1066 9.08038 14.5239 -28.6919 9.12342 14.8855 -30.9903 7.53025 13.6499 -32.1342 8.89377 13.3447 -31.4664 6.26748 13.6243 -30.0313 5.80844 13.5558 -32.9197 6.27199 5.33756 -33.8003 5.70211 4.52034 -32.6437 7.14838 6.0821 -32.0657 5.55133 6.62619 -35.5007 4.84523 4.86326 -33.5349 3.61524 6.31981 -36.6463 5.18836 4.21906 -36.2284 5.24827 2.76427 -39.1871 3.54264 2.50752 -37.5945 3.32076 2.81904 -40.3289 3.87435 1.91479 -40.309 3.34825 0.154801 -36.5878 4.86971 1.86515 -37.0829 2.69291 4.14054 -32.3293 5.73744 11.3427 -31.6682 8.03309 10.3299 -33.0785 8.32097 11.3269 -33.3624 8.68422 12.3336 -34.1386 7.63671 12.7276 -32.4785 10.2663 12.5653 -34.5974 6.33988 13.3569 -34.1353 3.07603 8.88203 -33.812 3.05868 10.1717 -33.0653 3.22644 7.21535 -33.3336 3.47665 11.4161 -26.0585 23.3765 27.9229 -26.5694 22.1186 28.3947 -26.1222 22.8826 29.4827 -25.7807 23.5626 26.6359 -26.0788 25.0354 27.2879 -26.7604 26.2636 27.3856 -23.2485 23.4111 27.8803 -22.94 23.5698 30.1998 -23.7599 24.2135 31.3768 -22.6644 23.3521 28.9173 -22.2342 23.0341 27.9441 -23.8779 25.2806 28.4805 -23.7382 24.313 32.6098 -25.5448 27.4141 32.8303 -25.1335 28.3516 33.6816 -26.1101 29.2719 32.9696 -25.9035 26.8113 31.9718 -24.9893 26.059 31.7021 -23.5253 28.8077 34.7153 -25.7563 25.2502 31.0063 -21.0443 25.6375 34.4347 -21.2973 24.3391 34.5696 -20.8519 26.7213 34.4805 -19.807 27.2679 35.3273 -20.8132 28.1587 34.9482 -18.2833 26.8464 36.0401 -18.3747 28.108 35.716 -21.7718 29.1434 34.8604 -19.8347 29.2294 34.4761 -28.1533 23.8284 32.6973 -28.4867 26.0849 33.1303 -30.6619 25.0862 35.1434 -30.5995 23.9833 34.2479 -30.2082 23.3495 32.4976 -26.8642 23.4989 32.5999 -32.0537 21.2875 30.4854 -32.6207 22.1361 31.9557 -30.8051 20.9905 30.1333 -29.961 20.6318 29.7348 -32.6839 23.1459 33.246 -33.6012 22.7891 33.0694 -35.3416 23.3973 32.866 -36.0727 23.4057 31.5525 -35.7234 22.528 31.0576 -36.9529 24.8763 30.7829 -37.481 24.6636 32.4073 -37.8689 25.4232 31.4264 -36.8142 22.6389 32.8621 -37.4948 25.6162 34.0286 -37.5619 26.7089 32.1611 -41.3897 26.425 35.3261 -40.738 27.4984 34.8889 -39.8315 26.6777 34.3942 -38.4332 26.5586 34.1304 -41.2821 26.8025 33.1601 -37.2965 26.7012 33.7897 -37.1662 10.3749 21.4327 -37.5126 9.40276 22.2704 -38.6597 10.8128 22.0123 -35.7565 9.94971 20.6899 -36.6507 11.4284 20.5549 -34.6089 8.48635 20.5491 -33.659 7.59854 19.9018 -34.1822 6.91969 19.1436 -32.5124 6.96191 19.2741 -34.7634 5.92173 18.4846 -35.0164 5.56197 19.8514 -30.8036 5.13647 18.9586 -30.2788 6.09144 18.6499 -41.6333 11.9979 20.6163 -42.4258 11.4237 21.5164 -43.7775 11.2673 20.6261 -41.6478 13.4773 20.836 -42.8979 13.4204 20.0632 -40.3106 9.24375 19.086 -40.2595 10.8418 19.7362 -39.8917 8.80589 20.0319 -39.4392 8.3198 20.7796 -37.6726 8.33052 20.2022 -38.7395 7.53724 21.3939 -30.1981 16.3062 22.0007 -31.3422 16.4362 22.6658 -30.2452 16.0421 23.8797 -29.1974 15.6739 21.3387 -30.0874 15.5129 20.2825 -32.284 17.2833 22.8866 -31.8135 18.2237 24.2974 -30.7677 18.8199 25.8147 -34.2005 11.6439 19.2743 -33.3433 11.2556 20.1821 -32.4072 12.1272 19.3638 -34.9984 12.6579 18.9523 -36.1117 11.9556 19.6543 -31.2475 12.0822 20.1811 -30.9577 13.0393 20.1809 -29.5909 20.1167 26.2968 -29.6978 18.5589 26.0269 -30.4703 20.2328 28.4495 -31.822 20.346 27.3161 -29.5263 17.0107 26.1432 -28.9914 15.8016 26.9955 -31.4334 20.6376 24.9795 -32.4746 20.0485 25.955 -31.2391 21.9393 25.169 -32.7256 22.7467 24.8315 -34.3459 22.617 24.9133 -34.2494 24.0081 23.2565 -5.75079 23.8163 37.7289 -4.75773 23.7569 37.8305 -7.00639 23.3752 37.7969 -5.24912 23.0619 37.3056 -7.7645 24.4947 38.8905 -8.58683 23.0593 38.2949 -8.62062 24.1412 38.5136 -8.61451 25.0067 39.0144 -4.53096 22.0467 37.5115 -3.46523 22.7116 36.8687 -4.13237 20.3536 37.5633 -9.49556 22.2075 37.245 -5.19891 18.5557 38.8933 -5.37586 19.4437 37.6505 -5.8702 17.2942 39.1085 -6.18406 16.2623 39.413 -3.57346 19.7203 38.4987 -0.816983 23.9965 37.8135 -1.9627 24.1218 37.1503 -2.137 22.9011 37.0233 0.230107 25.549 37.6852 -1.99129 25.7696 36.8376 -2.30319 21.662 36.8655 -2.15673 27.5289 37.2485 0.539724 29.9325 37.536 1.4119 28.7126 38.2088 -2.25968 29.1866 36.9672 2.37466 28.3294 37.3501 -2.98049 28.4851 38.3465 -20.4197 31.1989 42.1944 -19.2257 30.7047 41.8807 -20.497 31.1515 43.8943 -21.7018 30.6899 42.4728 -18.0136 29.4549 44.2687 -18.3934 29.793 45.8313 -17.4668 28.8378 42.7442 -15.1694 27.9778 40.8015 -15.9472 27.7936 41.8641 -14.2557 26.6139 40.5944 -16.9999 27.6867 42.0649 -16.8601 26.5236 42.9958 -15.9646 26.0466 42.3958 -13.0667 26.5661 41.3763 -13.8661 26.0699 42.0218 -16.7039 25.6446 44.3147 -11.0836 23.0288 41.9435 -12.3031 23.3676 42.3576 -10.9535 23.5267 41.0861 -10.163 23.1573 41.5747 -12.5554 24.3032 43.4482 -12.9567 23.2535 44.2313 -13.1906 25.7577 43.3164 -10.1752 24.6434 40.775 -14.7973 25.6868 42.7607 -9.90796 26.7454 38.7257 -9.31403 25.6027 38.3657 -10.488 26.2851 40.0951 -10.5734 27.26 40.3008 -11.4794 26.8427 38.7948 -10.4029 26.6065 41.0383 -19.3438 34.5134 39.6053 -19.4486 35.4963 37.9758 -18.3575 34.8919 40.4135 -18.2075 36.4859 40.2248 -17.9168 36.2067 41.14 -18.4306 37.0555 41.0159 -18.4006 38.1881 40.5118 -19.3326 35.1631 36.9221 -20.0776 36.5736 37.4848 -17.3636 37.4025 41.8591 -18.3948 39.9633 44.4987 -20.1135 39.7853 43.8774 -20.254 40.2937 44.9167 -20.3864 39.1064 42.4719 -21.748 39.1788 43.6475 -19.0025 38.9093 41.2855 -17.3336 38.5351 41.3551 -20.1102 41.9386 46.4664 -18.9009 42.5449 45.2617 -19.6169 41.3333 47.5427 -20.818 40.8596 46.2331 -18.7937 42.7034 44.0099 -17.6061 43.3291 44.8953 -20.057 38.8319 48.3833 -21.1803 37.6247 51.2998 -20.4289 38.6959 51.0633 -21.4709 39.4843 51.7665 -19.454 38.5126 49.8628 -17.8516 39.3044 49.8775 -22.3182 40.3194 51.5954 -16.4393 27.7154 38.5305 -15.7515 27.4455 37.4251 -15.8868 28.8311 37.272 -15.5207 25.8972 37.3851 -16.9952 29.1772 36.3033 -14.4572 25.3342 38.5254 -12.9756 26.1433 38.656 -18.3957 29.1478 35.2527 -18.6273 30.3076 34.0963 -17.943 29.5822 34.0219 -17.7209 30.5113 33.7263 -18.8772 31.367 35.8134 -18.5093 30.78 36.844 -21.5121 29.8882 36.8413 -21.9492 31.1256 35.8214 -21.5644 33.1953 41.4126 -23.1986 32.5857 41.5028 -20.98 32.34
[...]
POINT_DATA 1686
FIELD FieldData 1
normals 3 1686 double
-0.365021 0.336024 -0.868244 0.784514 -0.160959 0.598858 -0.109616 -0.529714 -0.841063 0.755347 0.613984 0.229073 -0.386055 0.848492 0.361971 -0.328334 0.885567 -0.328584 -0.358883 0.915297 -0.18285 -0.494669 -0.7017 0.512757 0.0989154 -0.27872 -0.955265 0.121088 -0.930776 -0.344953 0.525382 0.757299 -0.387907 0.301739 -0.716942 -0.628449 -0.443282 -0.804769 0.394776 0.558496 -0.6828 -0.471027 0.659055 0.451945 -0.601159 0.217812 0.972953 0.0769441 -0.428571 0.65871 -0.618408 0.47771 -0.253408 -0.841176 -0.789245 0.594559 -0.153596 -0.924122 0.2197 -0.31262 0.271017 0.484115 -0.831975 -0.155119 0.478696 0.864169 0.184678 -0.701385 -0.688442 0.632105 -0.743625 0.217865 0.530913 0.688049 0.494692 -0.822472 -0.154844 0.547323 0.459789 -0.171886 0.871234 0.633522 -0.744526 0.210547 -0.127809 0.407803 0.904081 0.520524 0.230677 -0.822097 -0.839285 -0.539622 0.0663989 -0.443747 -0.579404 -0.683652 0.447567 -0.491677 0.746952 0.204063 -0.889438 -0.408973 0.807839 -0.0416575 0.58793 -0.11311 -0.992252 0.0513991 0.386855 -0.514411 -0.765327 0.671858 0.188401 0.716318 -0.0584235 0.620301 0.782185 -0.63011 -0.172776 0.75704 0.68058 0.645963 -0.345751 0.582371 -0.421822 0.694917 -0.243987 0.969766 0.00495832 -0.593584 -0.265089 -0.759859 -0.743001 -0.502816 0.44173 0.843035 0.466702 0.267358 -0.554466 0.521064 0.648891 -0.765376 -0.28843 -0.575332 -0.477412 -0.866561 -0.145429 0.654944 -0.257854 -0.710324 0.834825 -0.391154 0.387384 -0.67855 -0.101368 0.727526 -0.250289 -0.856932 0.45058 -0.12003 0.944012 0.307302 0.299565 -0.854388 -0.424595 -0.242536 -0.122912 -0.962325 0.460963 -0.276468 0.843255 0.933979 0.151024 -0.323843 -0.247336 0.95418 -0.168418 0.709271 0.586773 0.390682 0.92801 0.252716 0.273738 0.822592 -0.536979 0.187071 0.773629 0.59445 0.219379 0.888673 -0.00217396 -0.458536 -0.0963897 -0.3865 -0.917239 -0.486863 0.862792 0.136213 0.348457 -0.125353 0.928905 0.590753 -0.434506 -0.679864 -0.375238 -0.117193 0.91949 -0.503567 -0.86313 0.0377681 -0.130149 0.15849 0.978745 0.0554064 -0.389527 -0.919347 -0.148139 0.582151 -0.799471 0.814946 0.491572 0.306952 -0.424443 -0.5534 0.716657 0.461377 -0.118777 0.879217 0.88582 0.434624 0.162559 -0.111651 -0.850037 0.514754 -0.887672 -0.253704 -0.384283 0.749653 0.620682 0.229728 0.718738 0.583785 0.377639 0.111087 -0.937021 -0.331135 -0.72661 -0.222672 0.649966 0.0812766 -0.993373 -0.0812684 -0.622684 0.781394 -0.0410793 -0.507358 -0.0514045 -0.860201 0.0384567 0.549007 -0.834933 -0.57417 0.814728 -0.0809125 0.90643 -0.372057 0.199895 -0.303971 0.502787 0.809201 -0.394451 0.780925 -0.48432 0.0965637 -0.11995 -0.988073 -0.030464 -0.93066 0.364615 0.551435 0.721827 -0.418193 -0.876189 -0.375847 -0.301715 -0.425446 -0.310492 -0.850053 0.16701 -0.494003 -0.853269 -0.502801 -0.60411 0.618257 -0.367438 0.826529 0.426426 0.615994 0.646454 -0.450165 -0.297919 -0.892745 -0.338009 -0.387873 0.616655 0.685048 -0.998559 0.00723716 0.0531706 -0.787839 -0.508724 0.347145 -0.0184833 -0.470958 -0.881962 -0.177149 0.100693 0.97902 -0.566769 -0.689358 0.451175 0.239068 -0.717495 0.654254 -0.295713 -0.763682 -0.573885 -0.522694 0.661032 0.538356 -0.000979436 -0.904501 0.426471 -0.85647 0.489601 0.163554 -0.113003 0.376308 0.919578 -0.245624 0.793644 -0.556595 -0.520633 0.8419 0.141936 -0.88633 0.304907 0.348497 0.493646 0.618297 -0.611573 -0.151272 -0.704352 0.693546 0.43992 0.898037 0.000520118 -0.845543 0.305464 -0.437891 -0.784768 -0.529356 0.322367 -0.292351 -0.892446 -0.343614 -0.184763 0.00556061 -0.982767 -0.336563 0.88789 -0.31365 0.918144 0.330851 0.218059 -0.257096 0.960612 -0.105477 0.22225 0.858659 -0.461854 -0.395365 -0.454194 -0.79837 -0.807945 0.584139 -0.0775013 0.769849 0.534107 -0.349374 -0.904637 -0.124617 -0.407557 -0.670218 0.0869748 -0.73705 0.105832 -0.936949 0.333056 0.250889 0.54385 -0.800801 -0.872196 -0.0785195 -0.482814 -0.498838 -0.846546 0.185797 -0.547858 0.796816 -0.254825 -0.82526 -0.166877 0.539535 0.403093 0.094446 -0.910272 0.123593 0.0553851 0.990786 -0.887141 0.41397 0.203983 -0.685546 -0.704849 0.182248 0.549362 0.821287 0.153914 -0.968811 0.0643718 0.239296 -0.714834 0.0140995 0.699152 -0.526926 -0.462602 -0.712985 0.355649 -0.61343 0.705137 0.832135 -0.374905 -0.408653 -0.572286 0.535532 -0.621044 0.766017 -0.634638 0.102233 -0.314338 -0.670468 -0.67206 0.568276 0.641846 -0.514875 0.430623 -0.879659 -0.2019 -0.713259 0.483854 -0.507097 -0.90673 -0.383111 0.176258 0.528339 -0.842155 0.107856 0.14388 -0.084987 0.985939 -0.736671 -0.654865 0.168723 0.132177 0.961384 -0.241392 0.71014 -0.635669 0.302699 -0.963766 -0.202017 0.174195 0.978241 -0.199908 0.0555172 -0.181768 0.545155 -0.818392 0.599611 -0.485246 -0.636398 -0.86821 0.331611 0.369115 0.724359 0.10973 0.680635 -0.273578 9.8926e-05 -0.96185 0.293418 -0.526193 -0.79814 0.958956 -0.106682 0.262719 -0.212782 -0.737581 0.640857 0.256335 -0.697068 0.669619 -0.611344 0.618028 0.494267 -0.798925 -0.330144 0.502717 0.514985 0.693395 0.503978 -0.261168 -0.354121 0.897992 0.368925 0.888678 -0.272297 -0.197647 -0.942708 -0.268771 0.561386 -0.0384809 -0.826659 0.884605 -0.0558298 0.462988 0.508609 0.188889 -0.840023 -0.406123 0.473801 0.781394 -0.29851 0.698476 -0.650403 -0.809368 -0.559486 -0.178603 -0.362148 0.2045 0.909411 0.576363 -0.512443 -0.636559 0.278272 0.960379 0.0153898 -0.959938 0.267858 0.0822897 0.772841 0.568638 0.281722 0.0869995 -0.845304 -0.527155 -0.732879 -0.201512 0.649832 0.188664 0.627631 -0.755304 0.241471 -0.945626 -0.217905 -0.333041 -0.447821 -0.829783 0.754571 0.30092 0.583155 0.395231 -0.880156 -0.262904 0.806501 0.0573655 0.588443 -0.170081 0.977653 -0.12356 -0.753937 0.277332 -0.595538 0.160282 -0.474942 -0.865298 0.801731 0.398748 0.445227 -0.92725 -0.333866 0.169532 0.146984 0.568099 -0.809728 -0.106095 -0.730344 -0.67479 0.0454248 0.515711 0.855558 0.999484 0.0309023 -0.0087266 -0.00674773 0.921687 -0.387877 0.524213 -0.452414 0.721472 0.432765 0.809181 0.397417 -0.951821 0.063031 0.300105 0.985243 0.149021 -0.0842005 0.506871 -0.513028 -0.692737 0.849454 -0.19682 -0.489582 0.0628229 -0.993161 0.0984146 -0.000413199 -0.109777 -0.993956 0.3917 -0.524033 -0.756281 0.782237 0.183494 0.595345 0.385203 -0.782475 -0.489236 -0.181756 0.06615 0.981116 0.863414 0.485487 0.137183 -0.0193407 -0.844166 -0.535732 0.118588 0.943589 0.309156 -0.798769 0.58686 0.132525 -0.941643 0.0212573 -0.33594 -0.2106 0.0128265 0.977488 0.138666 -0.864829 0.482538 -0.636946 -0.413334 0.650734 0.108774 0.200621 0.973612 -0.279124 0.960227 -0.00728744 -0.530894 -0.779648 0.332116 -0.122537 0.751947 0.647735 0.586162 0.325409 0.741972 -0.975797 -0.181373 0.122166 -0.324106 0.89201 -0.315078 0.582393 0.0713452 -0.80977 0.815876 -0.190472 0.545955 -0.431008 -0.80213 0.413303 0.320802 0.333071 -0.886651 0.893911 0.317763 -0.316147 0.547532 -0.654334 0.521589 -0.599525 0.755735 0.263505 0.515796 -0.742915 -0.426653 -0.37837 0.735802 -0.561632 0.631852 -0.720444 0.285872 0.318032 -0.167364 -0.933191 -0.841276 -0.511489 0.175025 0.828507 -0.469269 0.305553 0.260105 -0.486466 -0.834084 0.00712704 -0.846227 0.532775 -0.0377623 0.39574 -0.917586 0.562583 0.559223 0.608909 0.0641038 -0.0670215 0.99569 -0.856576 -0.507106 -0.0954986 -0.495122 0.35073 -0.794885 -0.981734 0.0430736 0.185317 -0.268393 -0.0999746 -0.958108 0.964496 0.0442385 0.260365 0.0360602 -0.0993642 0.994398 -0.545575 -0.482101 0.685512 0.998056 -0.00399221 0.0622009 0.76855 0.0147107 -0.639621 -0.298344 -0.77857 0.552104 0.192403 -0.132073 -0.972388 -0.951632 -0.00207214 -0.307234 0.145356 -0.39615 0.906608 0.808336 -0.500241 0.310408 -0.0816618 -0.6612 -0.745752 0.00983366 0.849201 0.527978 0.460602 0.0911621 0.882913 0.585217 0.505058 0.634379 -0.993836 0.103029 0.040934 -0.136598 -0.285272 0.948663 0.799493 0.586338 0.130453 0.19593 0.910971 -0.362964 -0.917356 0.208648 0.339003 0.360186 -0.631332 0.686794 0.650022 0.325745 0.686558 0.591556 0.79174 -0.152346 0.484719 -0.766028 -0.422196 0.489936 -0.445122 0.749553 -0.861699 -0.331885 -0.383832 -0.313251 -0.782221 0.538521 0.848174 -0.426819 0.313732 0.832049 0.554699 0.00178057 -0.209087 -0.0343909 0.977292 -0.63775 0.747003 0.187782 -0.84876 0.060336 -0.525325 -0.77152 -0.189974 0.607179 -0.463556 -0.716322 -0.521534 -0.491386 -0.695013 -0.524878 0.50167 -0.754403 -0.423325 -0.764219 0.253959 0.592853 0.993056 -0.0593903 0.101553 0.00610901 0.865538 0.500806 -0.816218 -0.569903 -0.094859 -0.850011 0.511988 0.123897 -0.85612 -0.35355 -0.37691 -0.274903 -0.955795 0.104324 0.790832 -0.290905 -0.538478 0.673494 -0.737326 -0.0524925 -0.0925093 -0.281847 -0.954989 0.271555 -0.92987 0.248194 0.0946042 -0.0418137 -0.994636 -0.942845 -0.331585 -0.0330801 0.628985 -0.7003 0.337575 -0.114585 0.10409 0.987945 0.782625 0.614869 0.0971289 -0.363095 0.740143 -0.565996 -0.537394 -0.480466 -0.69308 0.264465 0.937679 -0.225425 0.334506 0.907722 0.253272 0.371203 -0.758685 0.535355 -0.49994 0.851592 0.157643 -0.429221 0.338504 -0.837367 0.442951 -0.881312 -0.164571 -0.396985 -0.806059 0.438944 0.519808 0.498062 -0.694071 -0.323825 0.104548 0.940323 -0.559294 -0.0856855 0.824529 0.63464 -0.579849 0.510889 0.481936 0.0382555 0.875371 -0.722878 -0.423307 -0.546131 0.742551 -0.187251 -0.643083 0.362818 0.150832 0.919572 -0.195751 -0.429897 -0.881403 0.387688 -0.643799 -0.659712 -0.390083 -0.827976 0.402852 0.526016 -0.720058 0.452574 -0.662675 0.72113 -0.202072 -0.522819 -0.442054 0.728868 0.372592 -0.918999 0.128903 0.662959 0.672306 0.329379 -0.136464 0.176094 0.974868 0.67896 -0.436933 0.590002 0.790436 -0.369406 0.488621 -0.429052 -0.0305744 0.902762 0.920595 0.128566 -0.368749 0.130159 0.497971 -0.85737 0.176765 0.96616 0.187855 -0.224528 -0.0835473 0.97088 -0.811978 0.488352 -0.319693 -0.142323 0.988142 0.0576206 -0.794732 -0.559211 -0.235975 -0.750537 0.193228 0.631947 -0.156605 -0.949509 0.271861 0.170489 -0.653531 0.737449 0.0851297 0.32136 0.943123 -0.82093 -0.0959615 -0.562909 -0.0853592 0.974891 0.205675 0.322526 -0.366554 0.872706 0.217657 0.616343 -0.7568 0.663797 0.745124 -0.0645225 -0.513799 0.848885 -0.124115 -0.223141 0.569607 0.791047 0.290657 -0.279277 0.915163 0.320682 0.853304 0.411139 -0.101608 -0.949514 -0.296815 -0.846628 0.461008 0.265882 0.7763 0.626244 -0.071944 0.984352 -0.171711 0.0395862 -0.73436 -0.34975 -0.581713 -0.874905 0.158662 0.457568 0.461414 -0.32918 -0.823855 -0.900175 -0.256766 0.35179 0.922563 0.132114 -0.362523 0.746278 -0.506336 0.43208 -0.396815 -0.671855 0.625419 0.812479 -0.0655315 -0.579295 0.890136 0.0665822 0.450805 -0.310965 -0.40717 -0.858786 -0.705328 0.224017 -0.672554 0.482354 0.849717 0.212875 0.611666 -0.597161 0.518906 0.214796 -0.976653 -0.00330092 0.966191 0.0945532 -0.239864 -0.0758439 0.882899 0.463397 0.00869081 -0.277863 -0.960581 -0.381316 0.507923 -0.772407 -0.771384 -0.0477208 -0.634578 0.714257 0.50966 -0.47967 -0.0264402 -0.779615 -0.625701 -0.161666 0.606047 -0.778827 0.257264 -0.768641 0.585667 -0.946759 -0.259993 -0.189872 0.806254 0.205651 0.554673 0.675288 0.603417 -0.424116 -0.453755 0.230623 -0.860767 0.222114 0.929141 -0.29557 0.906404 0.203742 -0.370029 0.684289 -0.725399 -0.0744582 0.850495 0.119038 0.512335 -0.482595 -0.706062 0.518246 -0.717939 0.643172 -0.266258 0.280816 0.594266 -0.753651 0.9458 -0.0801146 -0.314712 -0.688435 -0.689691 -0.224464 -0.361434 -0.773344 -0.520869 -0.0689112 0.725226 -0.685054 -0.473639 -0.85859 0.196187 -0.996211 -0.0765023 0.0413752 -0.728535 0.684667 -0.0216336 -0.477825 -0.216717 -0.851303 -0.09465 -0.902797 0.419522 -0.433579 -0.203647 0.877802 0.269169 -0.958115 -0.0977915 0.62246 0.141687 -0.769719 -0.0687624 -0.579721 -0.811909 -0.691223 -0.721409 -0.0421908 -0.626378 0.779293 0.018778 -0.677218 -0.425082 0.600568 -0.0165034 0.975302 0.220258 0.474468 0.358885 0.803792 0.264404 -0.616808 0.741376 -0.210063 -0.975693 -0.0624157 0.226193 -0.971901 -0.0651625 0.930187 0.354602 -0.094918 0.981994 -0.145793 -0.120136 0.255476 0.965648 -0.0474882 0.330303 0.12336 0.935779 0.58512 -0.0179471 -0.810748 0.797733 0.0383067 0.601793 -0.112939 0.0860424 -0.989869 -0.393375 0.3026 0.868153 0.566639 0.822415 0.0505387 -0.364641 -0.465808 0.806262 -0.870765 0.490678 0.0316783 0.972366 -0.186974 -0.139805 0.0280301 0.494647 0.868642 0.23558 0.971744 0.0146503 -0.518712 -0.780381 -0.349203 0.20755 0.477098 -0.853991 -0.247927 -0.164439 0.954721 -0.0281466 -0.121528 -0.992189 -0.916497 -0.226759 -0.329565 0.156642 0.245597 -0.956632 -0.342573 0.937957 -0.0536618 -0.149242 0.52586 0.837376 0.912881 -0.397776 -0.0917699 0.153256 -0.408566 0.89977 -0.136302 0.62911 -0.765273 -0.800264 -0.459316 -0.385495 0.949688 0.157887 -0.270488 -0.0610151 0.0185034 0.997965 -0.277943 0.855907 0.436086 0.0619139 -0.142439 0.987865 0.0933832 -0.708014 0.699997 0.701121 -0.0338788 -0.712237 -0.107636 0.619665 -0.77745 -0.489715 -0.64031 -0.591762 0.807009 0.245045 0.537299 0.566988 -0.171634 -0.805646 -0.553161 -0.252685 0.793828 -0.0515382 -0.105919 0.993038 0.448229 -0.168635 -0.877868 0.368535 -0.924024 -0.101794 0.921849 0.176702 -0.344922 0.494163 0.633957 0.594896 0.811417 -0.205811 -0.547032 0.868411 0.451899 0.20408 0.0569941 0.65771 0.751112 0.737897 -0.545782 -0.397027 -0.971052 -0.232953 0.0528315 0.0256408 -0.998613 0.0459941 0.0151821 0.212623 -0.977016 -0.921367 0.330582 -0.204449 -0.677336 -0.620258 -0.395595 0.330939 0.320286 0.887635 -0.0291698 -0.992512 0.118616 0.83466 0.550443 0.0188291 -0.456119 0.845331 -0.278156 0.837016 0.531663 0.12938 0.406863 -0.749709 -0.521917 0.636566 0.749819 -0.180431 0.750822 -0.0298741 0.659829 0.792295 0.114303 0.599336 -0.29674 -0.875739 0.380824 -0.178609 -0.360906 -0.915339 -0.666214 0.437836 0.603704 0.331632 -0.220279 0.917332 0.470252 -0.548694 0.69123 -0.726384 0.676066 0.123694 0.370378 0.492666 0.787464 -0.377073 -0.603762 0.702344 -0.836617 0.182921 -0.516344 -0.732024 0.31897 0.601996 0.740877 0.374384 -0.557618 -0.87654 0.478377 0.0532256 -0.682462 0.42243 -0.596488 0.689971 0.721927 -0.0525366 -0.791046 -0.350314 -0.501524 0.326822 0.596991 -0.732659 -0.167927 0.788539 -0.591613 -0.0608624 -0.805465 -0.58951 -0.470511 -0.382183 0.795333 -0.0580602 -0.961352 -0.269129 0.461375 -0.315868 -0.829072 0.429019 -0.393136 0.813257 0.519436 0.645485 -0.559943 0.765126 0.333408 -0.550838 0.435833 0.788699 0.433592 0.853372 -0.497232 0.156576 -0.210384 -0.0607868 -0.975727 -0.468126 -0.728442 -0.50023 0.997278 -0.0734079 -0.00698713 -0.707068 0.285095 0.647128 -0.955802 0.0433655 -0.290794 -0.248734 -0.24173 -0.937922 -0.000896167 -0.99961 -0.0278964 -0.600779 -0.698124 0.38947 0.577354 0.253189 0.776245 0.994818 -0.0996048 0.0204102 -0.41391 0.141633 0.899232 0.0106292 0.295422 -0.955308 -0.227622 0.920169 -0.318556 -0.37534 0.132969 -0.9173 -0.147718 -0.787201 -0.598743 -0.85193 -0.483143 0.201962 -0.969969 -0.12048 -0.211291 -0.979103 -0.201653 -0.0263278 -0.120052 0.139801 -0.982875 -0.233415 -0.351546 0.906605 0.740735 -0.671286 0.0262057 0.110937 0.968934 -0.221043 0.999747 0.0185134 -0.0127763 -0.385207 0.81165 0.439134 -0.194031 0.709288 0.677689 0.923819 0.381047 0.036914 -0.981566 0.184446 -0.050074 -0.273113 -0.386373 0.88098 0.0530327 0.595554 -0.801563 -0.876496 -0.307756 -0.370191 0.711845 0.500787 -0.492431 -0.952491 0.102885 0.286663 -0.692977 0.659009 -0.292387 -0.418222 0.134644 0.89831 0.380818 -0.525711 -0.760661 0.581375 -0.795845 0.169212 0.949479 -0.310691 -0.044281 -0.140397 -0.875532 -0.462312 0.193836 0.0347938 -0.980417 0.39198 0.0104643 -0.919914 0.116542 0.0192122 0.993 -0.965014 0.130292 0.227536 0.180561 0.78571 0.591656 0.144621 0.87044 -0.470553 0.920727 0.325934 0.214543 -0.508873 0.667797 0.543226 0.316358 -0.0756215 -0.945621 -0.0967717 0.467373 -0.878748 -0.431197 0.489612 0.757858 -0.806229 0.545279 -0.22949 0.955721 0.237057 -0.174359 -0.18414 -0.770201 -0.610641 0.807655 -0.0119407 -0.589535 0.872985 -0.334863 0.354633 -0.751562 0.580176 -0.313928 -0.155585 -0.968263 -0.195604 0.481612 -0.640905 0.597738 0.0653304 -0.322922 0.944168 0.0299906 -0.999 0.0331549 0.493632 -0.430108 0.755867 -0.927259 -0.347388 0.139683 0.57827 0.112486 -0.808054 -0.166092 0.848849 0.501865 0.173464 -0.475853 -0.86225 0.27535 -0.883234 0.379579 -0.92792 0.138132 -0.346242 0.144928 0.846554 -0.512193 0.901945 0.369348 -0.223778 -0.669604 -0.696597 -0.257649 -0.919399 -0.378311 -0.10764 -0.0604565 -0.545091 -0.836194 -0.987894 -0.150466 -0.0377597 -0.866614 -0.421368 0.267261 -0.78399 -0.308378 0.53876 -0.532141 0.843075 -0.0777908 0.344419 0.4224 -0.838424 0.520018 -0.251932 -0.816156 0.855034 -0.294284 0.426982 0.297535 -0.914434 -0.27438 -0.675484 -0.117891 0.72789 -0.642538 0.750141 0.156312 0.499823 -0.398645 0.768934 -0.131939 0.806301 0.576603 -0.994976 0.100097 -0.00164823 0.996517 -0.0712392 0.0433387 -0.121708 0.179119 0.97627 -0.943429 0.317202 0.0965681 -0.180553 0.115408 0.976771 0.528713 0.333305 0.780622 -0.526037 -0.833363 0.16968 0.544844 -0.745559 -0.38378 -0.0973436 0.387302 0.916799 -0.674709 -0.69698 -0.242871 0.0146337 -0.996856 -0.07787 -0.612443 0.29087 -0.735057 0.949382 0.243944 -0.197901 0.820325 0.00946553 0.571819 -0.25004 0.798036 0.548287 -0.185533 -0.85016 -0.492754 0.471134 -0.879663 -0.0650027 -0.131931 -0.515118 0.846905 0.374137 0.918305 -0.12937 0.0130084 -0.370299 -0.928822 0.471429 0.536848 0.699678 -0.761333 0.633332 -0.13879 0.784919 0.591487 -0.184514 0.670296 -0.629334 0.393245 -0.8266 -0.510238 0.237464 -0.532076 0.682876 -0.500575 -0.419251 0.245166 0.874141 0.507372 0.85302 0.122191 0.800811 -0.509291 -0.315158 0.607607 0.258199 0.751097 -0.527107 -0.27545 -0.803919 0.480835 -0.688053 0.54349 -0.282952 0.630679 0.722622 -0.850964 0.122065 0.510843 0.263116 0.668708 0.695413 0.217227 -0.451961 0.865184 -0.899012 -0.413762 0.143449 0.987358 0.0381238 0.153853 0.823846 -0.333652 0.458207 -0.0450653 -0.839121 0.542074 -0.56558 0.613999 -0.550568 0.490282 -0.647527 0.58338 -0.814901 -0.529471 -0.23579 0.818531 0.538297 -0.200607 -0.644404 0.31784 0.695501 0.352578 -0.907282 0.229189 -0.0671011 0.0433387 -0.996804 -0.755545 0.62664 -0.190979 0.366351 -0.550801 0.749937 -0.251157 0.820508 0.513505 0.342264 -0.574365 -0.743613 0.626792 -0.448531 0.637143 -0.850877 -0.406892 0.332337 0.496014 -0.672664 0.549083 0.647536 -0.569573 -0.506244 0.714029 0.645222 -0.271757 0.640478 -0.714224 0.282263 0.598063 0.43187 -0.675136 -0.91736 -0.269558 0.292897 -0.593258 0.639633 -0.488789 0.48641 -0.0382998 0.872891 0.114572 -0.874889 0.470578 -0.371839 -0.836589 -0.402313 -0.629182 -0.398893 -0.667094 0.186869 0.975816 -0.113414 -0.464836 0.207279 -0.860792 0.379101 -0.785838 0.488611 0.940639 -0.276016 0.197518 0.684217 -0.181263 -0.706393 -0.647332 0.696929 0.308628 0.402133 -0.0711933 0.912809 0.951604 -0.28847 0.105992 -0.295895 0.845237 -0.444995 -0.914265 -0.340405 0.219645 0.892875 0.221357 0.392141 -0.602705 0.165774 -0.780554 0.305267 -0.212422 -0.928272 0.279382 -0.542411 0.792298 -0.204556 -0.447434 0.870609 -0.876172 -0.480582 -0.0369265 0.63121 0.6836 0.366423 0.794634 0.395289 -0.460764 -0.0620532 0.522999 0.850072 -0.565146 0.814402 0.131757 0.0499916 -0.944112 -0.325811 -0.600611 0.0803735 -0.795491 -0.907723 -0.198766 -0.369502 0.437639 0.672334 0.597025 -0.760453 0.63698 -0.126366 -0.80631 0.0995555 0.583055 0.471121 0.419448 -0.775956 -0.506016 0.77339 -0.381858 -0.924661 -0.3072 0.225013 0.612646 0.572181 0.545228 0.876203 0.398527 0.271007 -0.483896 0.871648 -0.0779418 -0.0146175 0.986825 0.161132 -0.552762 0.593928 -0.584554 0.420536 0.898883 0.12312 -0.523727 0.810983 0.260802 0.913045 -0.00515338 -0.407826 -0.79932 -0.354169 -0.485439 -0.194546 0.74329 0.640056 0.498735 0.494627 0.711764 -0.38658 0.82441 -0.413407 -0.261211 -0.232516 -0.936859 -0.336548 -0.925973 -0.171201 0.257745 0.699125 -0.666927 -0.521953 0.448971 -0.725252 -0.872482 -0.478562 0.0987599 0.691011 0.0119075 -0.722746 -0.773662 0.601996 0.197605 -0.49734 -0.0917691 0.862689 0.276321 -0.693765 0.665084 0.496538 -0.543054 0.677158 0.301817 0.910876 0.281444 -0.654129 0.241211 -0.716891 0.73854