# vtk DataFile Version 4.0
Generated by libgran
ASCII
DATASET POLYDATA
POINTS 1686 FLOAT
-32.5836 2.18469 6.05474 -31.1245 1.50726 7.11919 -33.4099 2.25397 4.47461 -32.3766 3.2577 5.53585 -32.9364 -1.22899 7.19777 -34.0494 2.79343 3.48134 -30.4 0.392163 11.7905 -29.8204 -1.21922 12.22 -31.1487 0.943316 10.8399 -31.0622 -0.108268 9.39468 -30.8667 1.61562 9.46461 -30.3706 1.87441 8.27903 -28.9158 -2.73507 14.6836 -28.2296 -2.17578 13.6914 -28.5559 -1.07728 13.7303 -28.3085 0.610628 13.3257 -27.7286 1.00537 14.0384 -27.9152 1.60335 12.6583 -30.0986 -4.0253 12.5744 -31.4059 -5.8941 13.6852 -30.8522 -4.7559 13.2778 -31.0142 -5.30874 14.9291 -31.5779 -6.68241 12.6222 -30.4277 -5.24789 15.9878 -31.5639 -4.45323 16.4506 -32.3088 -4.40087 17.3979 -31.4118 -3.64892 18.0138 -30.9494 -4.86569 20.8362 -32.4812 -4.96269 21.0164 -31.4496 -4.29059 19.6324 -30.251 -5.75019 21.5419 -29.9498 -7.51697 21.2827 -32.8132 -4.92567 22.6667 -30.2839 -4.04919 18.6041 -28.1747 -8.18147 19.3476 -28.8931 -9.41523 19.3865 -26.895 -8.47668 19.1394 -25.8059 -8.48525 18.9313 -25.329 -7.03339 19.9011 -25.8789 -6.28699 21.379 -25.1982 -5.56932 19.7585 -27.9989 -10.306 20.4746 -19.902 -13.1884 23.0742 -20.8018 -12.8219 22.1664 -22.1848 -13.552 22.3451 -19.2557 -12.0787 24.5653 -20.5679 -11.7275 25.0718 -23.7227 -14.1988 22.713 -25.3698 -12.1497 19.668 -24.4542 -11.9946 18.6146 -25.0335 -13.1884 20.4268 -26.4395 -12.5778 20.8013 -24.3612 -14.0512 21.6123 -27.0988 -11.2778 21.3433 -23.9817 -13.5929 17.8032 -24.4271 -14.994 16.9544 -23.8456 -17.1797 17.8564 -23.8574 -17.355 16.5381 -24.7747 -16.2612 16.702 -22.2242 -16.8184 18.3347 -22.1615 -17.4842 15.6782 -20.599 -17.0061 18.4155 -20.7381 -17.9426 19.0377 -22.178 -16.8564 11.5241 -23.3155 -17.0153 11.62 -23.0146 -15.3804 11.864 -20.9001 -17.1994 11.6561 -21.3931 -18.2673 10.4903 -20.2234 -16.5927 13.284 -20.7032 -16.7758 14.8286 -36.9375 16.7715 3.66914 -37.6298 16.3167 1.86599 -37.5635 15.344 1.64342 -35.7215 17.3184 4.54478 -34.9302 17.1815 5.29267 -34.0348 17.5638 5.06439 -34.1419 16.9925 5.87813 -40.8033 15.624 2.11193 -41.822 16.3351 1.63995 -39.9977 17.0234 1.49631 -39.9069 15.2606 2.65983 -40.9061 13.8368 2.26139 -41.5763 12.764 2.73626 -42.1885 11.6235 3.47323 -46.5201 12.1018 3.82033 -46.864 11.1515 3.22337 -47.4399 13.3802 3.18928 -45.7293 13.6491 4.80733 -43.1278 11.1128 3.5266 -42.3448 10.1238 2.52128 -42.9337 10.4276 1.37253 -42.7447 9.50718 0.72175 -42.3629 8.68389 2.01774 -43.0509 11.9515 0.499998 -44.3843 10.9066 1.12187 -43.3714 12.3841 -0.726269 -42.5228 7.26163 1.52916 -42.5459 7.16812 3.14683 -44.9784 9.40861 -5.31666 -44.3175 9.30237 -6.46554 -45.1576 7.744 -6.1781 -45.9064 11.0331 -6.68968 -46.6877 10.4565 -7.13763 -46.7001 11.058 -5.33735 -47.9157 10.0321 -7.6359 -47.4814 10.4815 -5.78531 -45.9587 6.14737 -5.90866 -45.9862 11.222 -3.2941 -46.8782 11.2466 -4.29419 -45.8761 11.0895 -2.07909 -46.0152 10.7954 -1.00272 -46.565 10.3434 -0.1373 -45.5821 10.2272 0.259597 -47.7566 11.6016 -0.0240568 -45.7163 11.4301 1.50345 -43.9681 6.08778 -8.83718 -42.9977 6.47819 -10.19 -43.152 5.08214 -8.8131 -44.2623 7.25682 -8.276 -44.7772 8.48017 -8.48209 -46.3614 8.23829 -8.09046 -43.3773 3.44479 -8.44249 -47.4919 7.74244 -8.44622 -45.2167 2.71301 -4.88973 -44.7928 3.99812 -4.85096 -45.9996 4.49823 -5.27084 -43.801 5.33576 -4.89369 -25.2758 14.4011 19.802 -25.8694 15.1096 20.7578 -24.5599 15.7853 20.1297 -26.4796 13.3362 18.8552 -28.1055 13.108 20.4475 -28.4955 10.7365 18.2108 -29.099 12.4544 17.7816 -28.9947 9.62022 17.8292 -28.2431 8.86378 18.0272 -28.48 12.6965 17.0344 -30.4891 8.85698 18.1884 -29.8602 9.82968 16.6595 -30.629 8.14086 19.7096 -25.9206 5.70955 12.3651 -25.6669 4.62761 12.1245 -26.3159 6.76971 13.0636 -27.8161 6.02194 12.7889 -27.0851 3.74134 12.7713 -26.773 3.51232 11.3198 -27.4598 3.01244 14.1086 -26.3639 2.75993 10.1712 -25.985 2.95274 9.18481 -28.9564 9.81442 15.437 -30.2151 9.75378 15.0128 -27.8544 10.2293 14.6859 -30.2511 8.45427 13.792 -31.4312 9.80309 14.0129 -30.7382 7.22558 13.5181 -29.3314 6.83517 13.1395 -33.6952 7.35365 5.0426 -34.8727 6.88483 4.64053 -33.0527 8.22599 5.51678 -32.5786 6.60627 6.09335 -36.4479 6.4036 5.65557 -34.3514 4.84392 6.45462 -37.6346 7.04205 5.48513 -37.7668 7.12726 3.97852 -40.934 6.0651 4.82044 -39.4206 5.49975 4.55129 -42.1594 6.5631 4.69567 -42.8659 6.05152 3.07893 -38.5051 6.89171 3.28554 -38.6422 4.72081 5.64199 -32.0359 7.11595 11.323 -31.6061 9.61577 10.8077 -32.7479 9.63308 12.135 -32.8316 9.77322 13.2302 -33.5327 8.6465 13.5367 -31.9003 11.297 13.6155 -33.8139 7.22027 13.955 -34.3393 4.3003 9.08412 -33.7 4.29563 10.25 -33.7109 4.39126 7.20202 -32.9215 4.66752 11.349 -25.3549 23.214 29.8518 -25.8788 21.9756 30.3596 -25.5449 22.8191 31.4294 -24.9651 23.3281 28.5856 -25.3577 24.8289 29.1117 -26.0753 26.0394 29.0637 -22.5307 23.3497 30.0453 -22.4497 23.6549 32.3695 -23.3999 24.3338 33.4221 -22.0464 23.3742 31.1339 -21.5149 23.0175 30.2264 -23.2759 25.2252 30.4699 -23.5009 24.5055 34.6432 -25.3543 27.5125 34.5885 -25.0116 28.5234 35.3844 -26.0321 29.3375 34.6076 -25.6362 26.8588 33.7387 -24.6735 26.1434 33.5493 -23.4512 29.1404 36.4078 -25.37 25.287 32.8367 -20.7451 26.089 37.1587 -20.8002 24.8501 37.6385 -20.6572 27.1606 36.9183 -19.6896 27.9738 37.6326 -20.7157 28.6698 36.9905 -18.1893 27.8493 38.4934 -18.3246 28.9739 37.8438 -21.7153 29.5355 36.6062 -19.7663 29.6385 36.2927 -27.8857 23.6161 34.5422 -28.3693 25.9399 34.7084 -30.6059 24.7973 36.5097 -30.4301 23.642 35.6993 -29.9883 22.9402 33.9875 -26.562 23.4511 34.5627 -31.5701 20.5231 32.0986 -32.1809 21.3147 33.5831 -30.3183 20.4614 31.651 -29.4533 20.258 31.1923 -32.3461 22.3545 34.8401 -33.1839 21.8154 34.7542 -35.0214 22.0572 34.6797 -35.8349 21.8404 33.4344 -35.3679 21.0108 32.9538 -37.0565 23.0207 32.6423 -37.4514 22.822 34.3058 -38.0611 23.3645 33.294 -36.3124 21.0318 34.8383 -37.6591 23.8775 35.8482 -38.0794 24.7454 33.9101 -41.5806 23.7541 37.3026 -41.2519 24.9173 36.7487 -40.1789 24.3209 36.2661 -38.8093 24.5478 35.9321 -41.6902 24.6649 34.1732 -37.7637 24.9511 35.5167 -34.1043 7.07954 22.9982 -33.9686 5.84827 23.4802 -35.477 6.8099 23.8933 -32.849 7.37885 21.9714 -34.1137 8.44965 22.4796 -31.3918 6.52901 21.176 -30.4891 6.13726 20.1077 -30.9866 5.41182 19.3758 -29.4758 6.06723 19.0675 -31.4678 4.39859 18.6618 -31.0563 3.74122 19.8702 -27.5234 5.05044 17.8726 -27.3837 6.14499 17.6173 -38.9368 7.1505 23.547 -39.2106 6.13674 24.3627 -40.6619 5.70024 23.7731 -39.3153 8.42924 24.2245 -40.668 8.09336 23.7547 -37.4009 5.49954 20.9789 -37.6245 6.81317 22.0765 -36.6027 5.04733 21.6273 -35.821 4.6105 22.0725 -34.4089 5.42925 21.1838 -34.7692 4.01656 22.2145 -29.7507 15.6974 23.5148 -30.7367 15.5212 24.3895 -29.3582 15.3786 25.3443 -28.7456 15.5056 22.6246 -29.7033 14.9978 21.7536 -31.7916 16.155 24.7619 -31.3507 17.2379 26.0769 -30.2741 18.0932 27.441 -32.1856 9.87404 21.0659 -31.1008 9.80609 21.7926 -30.7104 10.9988 20.9379 -33.3211 10.5624 21.1391 -33.9607 9.36841 21.764 -29.5393 11.391 21.6374 -29.6229 12.3875 21.6374 -29.3145 19.6059 27.7407 -29.1577 18.0425 27.5357 -29.9732 19.7042 29.9701 -31.4289 19.5125 28.986 -28.5908 16.6016 27.7416 -27.6243 15.6903 28.584 -31.3421 19.7078 26.6082 -32.1568 19.019 27.7237 -31.3777 21.0364 26.6482 -32.9783 21.5716 26.2917 -34.5669 21.2375 26.4081 -34.564 22.4507 24.5543 -6.39693 25.0513 42.5274 -5.45498 24.8915 42.8227 -7.70332 24.8006 42.4486 -5.96732 24.1622 42.3693 -8.42614 26.2294 43.1271 -9.37175 24.8107 42.6973 -9.26039 25.9092 42.6782 -9.18916 26.8593 42.9821 -5.46687 23.1393 42.9096 -4.21987 23.4973 42.3548 -5.36698 21.4555 43.3374 -10.2206 23.8275 41.7142 -7.15363 20.1075 44.6641 -6.92398 20.8451 43.3345 -8.22286 19.1676 44.912 -8.88342 18.3239 45.2405 -5.1061 20.9056 44.441 -1.5339 24.5492 43.5189 -2.43638 24.6832 42.5516 -2.91755 23.5517 42.7084 -0.0807565 25.7116 43.2729 -1.94642 26.113 41.8238 -3.25696 22.3407 42.7871 -1.71112 27.907 41.6916 1.41983 29.6808 42.1278 1.76864 28.5802 43.2975 -1.29159 29.3708 40.9712 2.76295 27.7719 42.8864 -2.46615 29.3075 42.2083 -20.9524 34.2339 43.2301 -19.6715 33.9118 43.0767 -21.095 34.7838 44.8348 -22.115 33.6056 43.7138 -18.5096 33.5666 45.8482 -19.0471 34.339 47.1954 -17.8262 32.5806 44.5973 -15.4767 30.9707 43.1458 -16.3254 31.198 44.1438 -14.7404 29.515 43.4225 -17.3919 31.2725 44.2737 -17.4538 30.4311 45.5096 -16.5991 29.7015 45.154 -13.6097 29.5713 44.286 -14.4993 29.381 44.9746 -17.4729 30.0572 47.0576 -12.0258 26.2217 46.1158 -13.2477 26.7407 46.2219 -11.7457 26.4087 45.1743 -11.0594 26.175 45.8631 -13.4989 27.982 46.946 -14.1334 27.262 47.9232 -13.9379 29.3956 46.3582 -10.8311 27.3221 44.6464 -15.5094 29.3402 45.7081 -10.1202 28.6326 42.1034 -9.67281 27.3723 42.1056 -10.9005 28.6708 43.45 -10.9148 29.663 43.3262 -11.6718 28.8314 41.9125 -10.8971 29.2743 44.2474 -19.5785 37.3092 39.5909 -19.9737 37.4904 37.7353 -18.9752 38.3643 40.1313 -19.6022 39.7257 39.5377 -19.1533 39.8934 40.4155 -20.0119 40.3569 40.1963 -20.5499 41.178 39.4387 -19.6109 36.9088 36.8608 -20.9828 37.8942 36.9504 -19.1772 41.3673 40.6986 -21.401 44.1755 42.5773 -22.7716 42.9631 42.4244 -23.1721 43.7247 43.2104 -22.6512 41.7376 41.4271 -23.8325 41.6064 42.7794 -21.3654 41.7705 40.1204 -19.7152 42.1884 39.9409 -24.2082 45.7218 43.7237 -23.6629 46.1577 42.0521 -23.4522 46.1734 44.72 -24.0474 44.5119 44.2031 -23.7245 45.7832 40.844 -23.0896 47.24 41.09 -22.2153 44.7959 46.649 -22.274 45.0136 50.0087 -22.3877 45.9666 49.0885 -23.6934 46.3005 49.7095 -21.5339 45.7119 47.8113 -20.8053 47.0878 46.9266 -24.8846 46.2771 49.5508 -16.5782 29.5492 40.7746 -15.7969 29.0066 39.8455 -15.9839 30.2702 39.2709 -15.5659 27.5273 40.3041 -17.0345 30.2433 38.1837 -14.6793 27.3814 41.6973 -13.1962 28.1934 41.7842 -18.3708 29.8528 37.1216 -18.5943 30.6528 35.6913 -17.8719 29.9774 35.8394 -17.6797 30.8088 35.3181 -18.9867 32.0882 37.0627 -18.64 31.8382 38.2286 -21.6051 30.7863 38.4338 -22.0457 31.6021 37.0543 -22.4355 35.5348 41.7707 -23.905 34.6367 42.0613 -21.6145 34.6125 41.2773 -21.8516 34.0972 40.1283 -24.6968 32.9607 42.6202 -25.14
[...]
POINT_DATA 1686
FIELD FieldData 1
normals 3 1686 double
-0.556789 0.452399 -0.696649 0.902265 -0.22503 0.367804 -0.269597 -0.383116 -0.883481 0.763704 0.620611 0.177758 -0.681887 -0.66165 -0.311847 -0.369872 0.922574 -0.109786 -0.682941 0.729812 0.0310715 -0.103341 -0.881571 0.460601 -0.0658094 -0.178659 -0.981708 0.1523 -0.872925 -0.463473 0.34782 0.850967 -0.393543 0.148325 -0.592183 -0.792035 -0.0430207 -0.943145 0.329587 0.64314 -0.383847 -0.662595 0.316809 0.714646 -0.623629 -0.0693701 0.973266 0.218954 -0.649233 0.578523 -0.493768 0.462641 0.0194523 -0.886332 -0.994205 -0.101415 -0.0356492 -0.794275 -0.509022 -0.331698 -0.240594 0.629181 -0.739084 -0.40262 0.0763407 0.912178 0.622283 -0.279291 -0.731273 0.989087 -0.0154919 0.146515 -0.147059 0.77917 0.609318 -0.597894 -0.726817 0.338023 0.299132 0.0251396 0.953881 0.837196 0.0917062 0.53916 -0.694637 -0.00529127 0.719341 0.336938 0.666811 -0.664707 -0.138876 -0.976204 0.166551 0.440148 -0.790572 -0.425753 0.362604 0.0423107 0.930982 0.828758 -0.425411 -0.363574 0.839326 0.351019 0.415111 0.120923 -0.882736 0.454043 0.440322 -0.646221 -0.62331 0.648823 0.63765 0.415247 -0.171902 0.814205 0.554545 -0.378012 -0.0678035 0.923314 0.302693 0.649863 -0.697176 0.773294 -0.00801964 0.633997 -0.215286 0.890455 -0.400926 -0.684547 -0.523975 -0.506799 -0.698355 -0.206102 0.685435 0.886055 0.453962 -0.0939459 -0.426073 0.805161 0.412526 -0.839639 -0.44068 -0.317503 -0.537131 -0.764418 0.356588 0.378435 -0.609362 -0.696753 0.873437 -0.274373 0.402277 -0.532575 0.336268 0.776716 -0.201162 -0.588333 0.783197 -0.126741 0.963767 -0.234713 0.0941445 -0.988937 -0.114629 -0.539547 -0.412158 -0.734176 0.737245 -0.0635109 0.672634 0.725381 -0.238786 -0.645603 -0.191891 0.855044 -0.481745 0.884159 0.424861 -0.194309 0.970595 0.109574 -0.214336 0.740985 -0.612595 0.275078 0.880093 0.323882 -0.347185 0.609038 -0.533964 -0.586477 -0.528507 -0.692868 -0.490525 -0.227566 0.942027 -0.246573 0.668816 0.190925 0.718493 0.175839 -0.876926 -0.447304 0.00787354 0.415792 0.909426 -0.48767 -0.598881 0.635231 0.317744 0.112426 0.941488 -0.374569 -0.342405 -0.861659 -0.440883 0.630234 -0.639083 0.898293 0.434434 -0.0658497 -0.107076 -0.571287 0.813736 0.788349 -0.189051 0.585461 0.895425 0.382236 -0.228276 0.0307761 -0.862362 0.505357 -0.987921 -0.151319 0.0333742 0.836361 0.536974 -0.110267 0.865609 0.49891 0.0425381 -0.133577 -0.924928 -0.355899 -0.536636 -0.147787 0.830771 -0.0755192 -0.992722 -0.0938037 -0.552604 0.8148 0.175299 -0.896567 -0.13554 -0.421659 -0.367246 0.463606 -0.80635 -0.522897 0.846302 0.101745 0.863747 -0.481954 -0.147178 0.0808313 0.507005 0.858144 -0.508077 0.810806 -0.290607 -0.319026 -0.109622 -0.941385 0.0627757 -0.932907 0.354603 0.390898 0.713137 -0.581923 -0.942505 -0.331795 0.0399478 -0.711396 -0.280601 -0.644344 -0.222642 -0.489353 -0.843187 -0.245829 -0.582865 0.774492 -0.212903 0.790809 0.573841 0.447988 0.684575 -0.575034 -0.392141 -0.873794 -0.287594 -0.150566 0.566043 0.810509 -0.931903 -0.010538 0.362554 -0.643135 -0.54112 0.541819 -0.296045 -0.413942 -0.860819 0.138205 0.0354618 0.989769 -0.408917 -0.722843 0.557032 0.427016 -0.754264 0.498741 -0.464986 -0.729684 -0.501348 -0.316932 0.621697 0.716273 0.177874 -0.915801 0.360095 -0.727669 0.463839 0.505323 0.255249 0.347631 0.90222 -0.463884 0.794409 -0.392079 -0.389489 0.855327 0.341635 -0.718006 0.266971 0.642801 0.252406 0.657381 -0.710029 0.0981209 -0.738672 0.666885 0.423805 0.902069 -0.0816186 -0.938769 0.321278 -0.12447 -0.645377 -0.563148 0.516093 -0.323433 -0.898673 -0.296273 -0.485129 0.0672901 -0.87185 -0.414793 0.858928 -0.300315 0.838679 0.426187 0.33909 -0.368035 0.926296 -0.0807897 0.153165 0.911456 -0.381821 -0.3716 -0.546097 -0.750794 -0.965175 0.162493 0.205018 0.344373 0.838109 -0.423061 -0.832181 -0.518717 -0.195978 -0.790846 -0.223369 -0.569798 0.437011 -0.89264 -0.110518 -0.166458 0.825225 -0.539719 -0.936206 -0.223648 -0.271107 -0.184626 -0.980089 -0.0730638 -0.785429 0.583132 0.207504 -0.558197 -0.539594 0.630281 0.0707363 0.433107 -0.898563 0.418306 -0.176529 0.890987 -0.910248 0.327776 0.253006 -0.656571 -0.754163 0.0123548 0.514959 0.732378 0.445466 -0.985193 -0.0153828 0.170755 -0.761607 -0.132108 0.634431 -0.449443 -0.361125 -0.817062 0.386921 -0.59679 0.702947 0.858489 -0.391274 -0.331513 -0.479584 0.584084 -0.654862 0.833082 -0.448369 -0.323945 -0.425622 -0.509009 -0.748168 0.26889 0.863265 -0.427167 0.389575 -0.7905 -0.472589 -0.79053 0.558322 -0.251671 -0.876641 -0.438193 0.198714 0.530142 -0.828605 -0.179897 0.452913 -0.0164718 0.891402 -0.724597 -0.485293 0.489337 0.189581 0.888813 -0.417217 0.66361 -0.73091 0.159352 -0.850657 0.00406859 0.525705 0.936622 -0.291677 -0.194073 -0.336061 0.634378 -0.696152 0.203906 -0.549168 -0.810455 -0.592971 0.475855 0.649575 0.920471 -0.0894932 0.380427 -0.632377 0.0221532 -0.774344 -0.0741542 -0.533732 -0.842396 0.942254 -0.313619 -0.117479 -0.142079 -0.689444 0.710268 0.438668 -0.780374 0.44563 -0.448159 0.465366 0.763275 -0.693614 -0.448056 0.564044 0.609877 0.588199 0.531105 -0.0911735 -0.538521 0.837665 0.321488 0.935622 -0.145801 -0.190061 -0.887705 -0.419353 0.332166 -0.0700216 -0.940618 0.97143 -0.0746865 0.225268 0.296155 0.160983 -0.941476 -0.192916 0.446571 0.873704 -0.254793 0.647362 -0.718334 -0.778678 -0.591059 -0.2105 -0.444804 0.252412 0.859324 0.644637 -0.533259 -0.547793 0.252008 0.967481 -0.0217506 -0.96965 0.243086 -0.0262302 0.7227 0.614218 0.316924 0.164915 -0.870395 -0.463913 -0.785311 -0.191469 0.58875 0.238381 0.589683 -0.771653 0.293124 -0.946375 -0.135842 -0.239975 -0.50885 -0.82673 0.684346 0.363144 0.632295 0.450942 -0.868848 -0.204338 0.793616 0.14206 0.591601 -0.226876 0.95615 -0.185216 -0.732911 0.215117 -0.64542 0.229859 -0.500208 -0.834839 0.766799 0.474963 0.431775 -0.926366 -0.356247 0.122206 0.116007 0.348193 -0.930217 0.0609169 -0.890741 -0.45041 -0.028064 0.723386 0.689873 0.99566 0.0897948 0.0244572 -0.030464 0.785813 -0.617714 0.504638 -0.214297 0.836312 0.369374 0.910325 0.186737 -0.969089 0.079904 0.233415 0.97986 0.182925 -0.0800816 0.60488 -0.605059 -0.51771 0.922815 -0.163344 -0.348899 0.184747 -0.967658 0.171777 -0.00900972 -0.187637 -0.982197 0.450846 -0.514136 -0.729659 0.71882 0.440055 0.538191 0.495526 -0.714279 -0.494227 -0.115266 0.0772951 0.990323 0.756315 0.652539 0.0467049 0.108617 -0.855987 -0.505458 -0.0499216 0.96251 0.266614 -0.887747 0.423374 0.18072 -0.949689 -0.181517 -0.25523 -0.136158 0.0353011 0.990058 0.330868 -0.794293 0.509535 -0.481287 -0.505943 0.71581 0.0863419 0.307266 0.947699 -0.523378 0.84969 -0.0640554 -0.341395 -0.843897 0.413869 -0.294071 0.748171 0.594779 0.505135 0.531242 0.680162 -0.888124 -0.417814 0.191489 -0.559431 0.745441 -0.362429 0.51356 0.148997 -0.845019 0.856066 0.0778804 0.510965 -0.533188 -0.776337 -0.336172 0.189487 0.325498 -0.926362 0.674514 0.672955 -0.303582 0.810221 -0.558309 0.178418 -0.69818 0.403319 0.591506 0.580822 -0.373642 -0.723213 -0.683902 0.69716 -0.21505 0.876368 -0.476199 -0.0722033 0.0262913 0.0844476 -0.996081 -0.523737 -0.809886 0.264167 0.98701 -0.154471 -0.0441678 0.0425118 -0.203343 -0.978184 0.454065 -0.860714 0.230211 -0.468891 0.471624 -0.746801 0.60855 0.622927 0.491557 0.38305 -0.262967 0.885506 -0.656838 -0.750791 -0.0698371 -0.79446 0.314284 -0.519672 -0.844975 -0.364557 0.391301 -0.507721 0.0286759 -0.861044 0.93964 0.33815 0.0522654 0.366877 -0.301752 0.87997 -0.141482 -0.790364 0.596077 0.923178 0.353535 -0.150847 0.489011 0.465218 -0.737862 0.128706 -0.947469 0.292809 0.0205975 -0.053561 -0.998352 -0.965346 -0.229779 -0.12373 0.413103 -0.37232 0.831098 0.984485 -0.138213 0.108099 0.0268592 -0.645993 -0.762871 -0.0896205 0.863574 0.496194 0.530586 0.219323 0.818765 0.546004 0.635987 0.545344 -0.938213 -0.284035 0.197688 0.146602 -0.351987 0.924453 0.536966 0.840717 0.0697296 -0.197244 0.97242 -0.124473 -0.836895 -0.221595 0.500501 0.634202 -0.448493 0.629795 0.550566 0.548003 0.629738 0.413534 0.876727 -0.245643 0.570378 -0.686693 -0.450691 0.62842 -0.302281 0.716739 -0.827313 -0.494056 -0.267324 -0.00346073 -0.754201 0.656635 0.969948 -0.157087 0.185806 0.715428 0.688229 -0.120434 -0.0993538 -0.000557094 0.995052 -0.751092 0.640387 0.160512 -0.849475 -0.10513 -0.51705 -0.739117 -0.229002 0.633453 -0.369597 -0.819513 -0.437945 -0.512338 -0.729331 -0.453415 0.429613 -0.889066 -0.158097 -0.794054 0.478682 0.374623 0.941951 -0.159736 0.295318 0.0712372 0.950038 0.303897 -0.874379 -0.468611 -0.125959 -0.763019 0.629898 -0.145021 -0.834256 -0.32014 -0.448918 -0.441505 -0.86315 0.245043 0.805499 -0.505152 -0.309825 0.541394 -0.820669 0.182743 0.025568 -0.514552 -0.857078 -0.0756143 -0.929755 0.360331 0.154033 -0.192092 -0.969213 -0.993615 -0.010157 -0.112367 0.333054 -0.833526 0.440806 -0.280508 0.270743 0.920877 0.886838 0.438013 0.147185 -0.0156446 0.571976 -0.820121 -0.496817 -0.559527 -0.663402 0.566302 0.724369 -0.393181 0.505607 0.857812 0.0923067 0.157412 -0.651518 0.742122 -0.27031 0.93622 -0.224553 -0.139528 0.141368 -0.980075 0.209285 -0.959296 0.189606 -0.689835 -0.527551 0.4958 0.785029 0.151006 -0.600772 -0.484722 0.464208 0.74132 -0.566637 0.101933 0.817638 0.714274 -0.220244 0.664308 0.42405 0.447919 0.787115 -0.595981 -0.730294 -0.333883 0.800292 -0.374645 -0.468159 0.262849 0.397818 0.879006 -0.11684 -0.611305 -0.782723 0.333183 -0.849584 -0.408896 -0.515476 -0.622286 0.589105 0.403099 -0.606156 0.685629 -0.551085 0.696786 -0.459123 -0.612968 -0.144653 0.776753 0.241698 -0.874217 0.421102 0.727663 0.662478 0.177847 -0.161984 0.47214 0.866513 0.593846 -0.229257 0.771225 0.686266 -0.233694 0.688786 -0.535576 0.285268 0.794846 0.9664 -0.0466466 -0.252775 0.280134 0.187047 -0.941562 0.284406 0.956091 -0.0707295 -0.350128 0.23603 0.906477 -0.72342 0.4575 -0.517065 -0.0517434 0.960009 -0.275146 -0.848075 -0.512902 -0.133039 -0.797948 0.42699 0.425392 -0.350603 -0.83323 0.427558 0.0176531 -0.388722 0.921186 0.00334062 0.60348 0.797371 -0.753737 -0.22812 -0.616313 -0.0143125 0.992202 -0.123814 0.371785 0.157209 0.91491 -0.0234503 0.338399 -0.94071 0.231541 0.89787 -0.374458 -0.858552 0.46354 -0.219131 -0.409678 0.631204 0.658594 0.448873 0.167664 0.877725 -0.0891636 0.988751 0.120088 0.386314 -0.919984 0.0662624 -0.985611 0.0654022 0.155864 0.385808 0.842713 -0.375482 0.931419 0.350116 -0.0993831 -0.439146 -0.862251 -0.252337 -0.839654 -0.10065 0.533715 0.559487 -0.363279 -0.744985 -0.621769 -0.49454 0.607316 0.726342 0.396207 -0.561647 0.923845 0.0216282 0.382155 0.125178 -0.322208 0.938356 0.670469 0.113706 -0.733172 0.630763 0.77381 0.057932 0.0356373 -0.887755 -0.458935 -0.732116 -0.488258 -0.474984 -0.0971372 0.968573 -0.228979 0.856074 0.216711 0.469226 0.792797 -0.508396 0.336165 0.679085 0.444636 -0.584074 -0.626586 0.778476 0.0369544 0.174724 -0.699333 -0.693112 -0.620335 -0.29889 -0.725154 -0.564589 -0.801853 -0.195629 0.724276 0.3888 -0.569438 0.0569532 -0.931363 -0.35961 -0.129996 0.332239 -0.934194 0.174055 -0.547924 0.81822 -0.920652 -0.35912 -0.153075 0.712578 0.402042 0.574973 0.770575 0.409921 -0.488037 -0.415638 -0.0313836 -0.908989 0.19222 0.831413 -0.521348 0.914556 0.155927 -0.373194 0.722336 -0.675486 0.148155 0.811271 0.320734 0.488845 -0.464563 -0.570783 0.677043 -0.737336 0.462689 -0.492193 0.296751 0.353116 -0.88727 0.970661 0.0329472 -0.238184 -0.498872 -0.865091 0.0523869 -0.149679 -0.955231 -0.255207 -0.0873527 0.439977 -0.893751 -0.292933 -0.81092 0.506555 -0.949839 -0.305072 0.0688219 -0.83122 0.45101 -0.32506 -0.242168 -0.554104 -0.796444 -0.0639575 -0.734091 0.676033 -0.510351 0.028001 0.85951 0.358922 -0.903587 0.233893 0.676287 -0.0402517 -0.735538 0.0569231 -0.810412 -0.583089 -0.619364 -0.770161 0.152448 -0.450248 0.892852 -0.00964527 -0.61744 -0.186419 0.764209 0.21189 0.97504 0.0663344 0.726173 0.218913 0.651728 0.23532 -0.649399 0.723122 -0.490853 -0.868312 0.0713943 0.13009 -0.974073 -0.185093 0.946307 0.131947 -0.295116 0.938367 -0.300638 0.170542 0.364815 0.896356 0.251906 -0.00608725 -0.0996987 0.994999 0.852789 0.131125 -0.505526 0.499593 -0.333851 0.799344 0.281615 0.258051 -0.924177 -0.655079 0.232461 0.718911 0.572708 0.615093 0.541911 -0.15262 -0.321296 0.934599 -0.929924 0.355804 0.0929783 0.967516 -0.0109686 -0.252572 0.088492 0.751154 0.654169 0.0363289 0.944841 -0.325507 -0.334382 -0.942334 -0.0139741 -0.052163 0.193689 -0.979675 -0.0303231 0.1266 0.99149 -0.185545 -0.442551 -0.877338 -0.940652 -0.337876 0.0318321 -0.119171 -0.104612 -0.987347 -0.448153 0.881584 -0.148221 0.0112477 0.693364 0.720499 0.919111 -0.351689 -0.177624 0.347862 -0.191128 0.917858 -0.360735 0.631041 -0.686773 -0.868625 -0.473365 -0.146345 0.829719 0.179324 -0.528592 0.226483 0.0108159 0.973955 -0.175802 0.840947 0.511763 0.344283 -0.147467 0.927212 0.305153 -0.702976 0.642422 0.555765 0.0658552 -0.828727 -0.39102 0.664477 -0.636847 -0.739621 -0.582981 -0.336294 0.97422 0.176778 0.140158 0.145675 -0.150799 -0.977772 -0.166133 -0.272353 0.947747 0.360152 -0.085097 0.929005 0.342538 -0.340378 -0.875677 0.166832 -0.985778 -0.0202017 0.825566 0.141624 -0.546245 0.561226 0.737321 0.37601 0.715952 -0.281149 -0.639037 0.846302 0.528501 -0.0667814 0.13035 0.80965 0.572255 0.701517 -0.582724 -0.41025 -0.908443 -0.26765 0.321083 0.119601 -0.976557 0.178974 -0.268552 0.219163 -0.938002 -0.951766 0.298892 0.0693207 -0.750825 -0.631648 -0.193087 0.401936 0.470254 0.78569 0.0732467 -0.963769 0.256486 0.822017 0.404779 0.400551 -0.287125 0.943403 -0.165982 0.790943 0.361854 0.493428 0.498878 -0.638849 -0.585656 0.712919 0.670271 0.206113 0.497679 -0.283544 0.819706 0.565761 -0.192885 0.801692 -0.42481 -0.90384 -0.0510823 0.109457 -0.017929 -0.99383 -0.788419 0.360461 0.498462 0.00342386 -0.518816 0.854879 0.184559 -0.789082 0.585907 -0.700819 0.699648 0.139085 0.126345 0.162779 0.97854 -0.606435 -0.728762 0.318029 -0.622315 0.456725 -0.635709 -0.869561 0.215281 0.444429 0.898569 0.401707 -0.17665 -0.820922 0.56864 -0.0522927 -0.423034 0.703798 -0.57071 0.884643 0.446904 0.13298 -0.784397 0.00902014 -0.620193 0.614738 0.501686 -0.608612 0.0708102 0.947129 -0.312943 0.0345337 -0.595361 -0.802716 -0.717687 -0.488454 0.496324 -0.0978034 -0.825695 -0.555574 0.675133 -0.209617 -0.707288 0.131552 -0.662853 0.737102 0.772936 0.616078 -0.151715 0.950984 0.261197 -0.165547 0.35598 0.557967 0.749634 0.759972 -0.588941 0.274939 0.21922 0.375461 -0.90054 -0.286739 -0.54239 -0.78968 0.919737 -0.211768 0.330513 -0.94408 0.00998311 0.329564 -0.747612 0.207841 -0.630776 0.196468 0.197858 -0.96034 -0.118078 -0.957231 -0.264134 -0.774817 -0.632102 -0.0102764 0.260822 0.0146907 0.965275 0.894889 -0.279748 0.347729 -0.708099 0.0655079 0.703068 0.40448 0.423217 -0.81073 -0.0318992 0.97633 -0.213922 0.0267679 0.304367 -0.952179 0.0586672 -0.671964 -0.738257 -0.91086 -0.34763 -0.222459 -0.811871 0.0272197 -0.583202 -0.914819 0.0119729 -0.403687 0.275488 0.338601 -0.899698 -0.598098 -0.455681 0.659267 0.602829 -0.788875 0.119474 0.284948 0.955998 0.0698055 0.92266 -0.162806 0.349562 -0.426356 0.799559 0.422997 -0.282389 0.789522 0.544896 0.910332 0.239688 0.33741 -0.861995 0.324458 -0.389477 -0.537612 -0.267858 0.799516 0.406285 0.388286 -0.827143 -0.782364 -0.236364 -0.576228 0.912241 0.268754 -0.309172 -0.903652 0.410669 0.121503 -0.965286 -0.0776004 -0.249403 -0.353836 0.599059 0.718282 0.575731 -0.673871 -0.463067 0.948485 -0.121572 0.292568 0.955562 0.15837 -0.248635 0.131125 -0.98914 -0.066397 0.126823 -0.320089 -0.938861 0.210522 -0.18949 -0.959049 -0.0675774 -0.0162201 0.997582 -0.89901 0.433458 0.0624125 0.313045 0.685317 0.657528 0.495425 0.776308 -0.389743 0.918357 0.00228742 0.395746 -0.352987 0.806662 0.474023 0.446676 -0.189721 -0.874349 0.231975 0.46103 -0.856527 -0.377756 0.616259 0.691032 -0.429199 0.83583 -0.34231 0.995021 -0.0983992 0.0158057 -0.25959 -0.356875 -0.897359 0.875523 -0.0449646 -0.481079 0.659224 -0.71674 0.227393 -0.508434 0.858697 -0.0643001 -0.282987 -0.66578 -0.690402 0.141105 -0.958954 0.24596 -0.216299 -0.671775 0.708472 -0.198517 -0.849653 -0.48855 0.10403 -0.862101 0.495943 -0.97163 -0.0859227 -0.220347 0.799787 0.299289 -0.520352 -0.16288 0.527764 0.833628 0.334191 -0.0123127 -0.942425 0.189209 -0.979478 -0.0694487 -0.841632 0.383938 -0.3798 0.330237 0.916426 -0.226067 0.966938 0.253394 -0.02867 -0.671111 -0.236761 -0.702534 -0.882963 0.0574739 -0.46591 0.128742 0.106816 -0.985909 -0.938659 0.206798 -0.275959 -0.979644 -0.0890234 -0.179923 -0.943682 -0.32422 0.0659189 -0.373554 0.819878 0.433886 0.635296 0.724101 -0.268472 0.713829 0.166944 -0.68013 0.635135 -0.735568 0.235677 0.255107 -0.911835 -0.321677 -0.796788 -0.111248 0.59393 -0.556326 0.811437 0.179087 0.303066 -0.575971 0.759216 -0.3252 0.707434 0.62752 -0.892224 0.231888 -0.387509 0.880676 -0.217038 0.421076 -0.606845 0.0505533 0.793211 -0.887176 0.286452 -0.361752 -0.652828 -0.0136761 0.757383 0.159639 0.0822844 0.98374 -0.4423 -0.874635 -0.198457 0.743691 -0.659523 -0.109329 -0.604021 0.267746 0.750647 -0.316904 -0.774472 -0.547508 0.163884 -0.97758 -0.132211 -0.266331 0.262367 -0.927487 0.966467 0.0466964 0.25251 0.488893 -0.254406 0.834423 -0.265805 0.7996 0.538505 -0.153024 -0.732455 -0.663395 0.316914 -0.946189 -0.0655068 -0.556036 -0.582323 0.593064 0.58795 0.790391 0.172037 0.0592029 -0.531147 -0.845209 0.212688 0.280695 0.935935 -0.545511 0.802781 -0.240749 0.863797 0.423145 0.273501 0.36005 -0.824707 0.436145 -0.934686 -0.33251 -0.125696 -0.202983 0.842113 -0.499643 -0.688037 0.193259 0.699469 0.529448 0.703583 0.473979 0.788661 -0.60108 -0.129291 0.324174 0.0250057 0.945667 -0.232955 -0.0493782 -0.971233 0.151687 -0.848615 0.506797 -0.447965 0.551987 0.703305 -0.950565 0.226813 0.212088 0.0662615 0.475931 0.876983 -0.210061 -0.699215 0.683354 -0.911331 -0.22731 -0.343228 0.830432 -0.222971 0.510556 0.503099 -0.502703 0.70298 -0.383025 -0.889318 0.24981 -0.182011 0.806756 -0.562154 0.231311 -0.815532 0.530475 -0.689947 -0.364363 -0.625469 0.84998 0.472044 0.233899 -0.853449 0.210351 0.476842 0.227132 -0.96993 0.0874474 0.282314 0.298368 -0.911743 -0.636672 0.739823 -0.217511 0.139145 -0.400463 0.905687 -0.537239 0.801811 0.261676 0.726769 -0.506744 -0.4637 0.427453 -0.192066 0.883399 -0.786928 -0.610351 0.090648 0.329182 -0.44012 0.835424 0.901093 -0.427913 -0.0701552 0.605447 0.78355 -0.139585 0.577506 -0.435965 0.690233 0.711219 0.580541 -0.396407 -0.823363 -0.555805 -0.11469 -0.427127 0.404022 -0.808906 -0.0192571 0.148768 0.988685 0.109068 -0.773576 0.624247 0.128325 -0.922344 -0.364438 -0.179004 -0.619714 -0.764141 0.0403566 0.963498 -0.264655 -0.139714 -0.0447599 -0.98918 0.302191 -0.585996 0.751857 0.859315 -0.0159334 0.511199 0.89691 -0.113857 -0.427304 -0.852058 0.516552 -0.0846879 0.00661813 0.154328 0.987998 0.868113 0.030892 0.495405 -0.275017 0.695838 -0.663457 -0.867078 -0.498067 0.0102838 0.67272 0.45821 0.580941 -0.355667 -0.0489156 -0.933332 0.608503 -0.272195 -0.745409 0.0944519 -0.362536 0.927171 0.159015 -0.600485 0.783666 -0.567303 -0.821831 -0.052549 0.298422 0.846797 0.440318 0.446561 0.781371 -0.435939 -0.162573 0.31484 0.935118 -0.839595 0.438732 0.320303 0.412095 -0.766385 -0.49278 -0.686654 -0.106846 -0.71909 -0.659117 -0.692192 -0.293999 0.159389 0.725079 0.669967 -0.993361 0.092917 -0.0678286 -0.693577 -0.345762 0.63198 0.143157 0.673234 -0.725439 -0.855565 0.429721 -0.288701 -0.572428 -0.780469 0.251383 0.510032 0.65239 0.560584 0.661825 0.607931 0.438643 -0.569627 0.730769 -0.376167 -0.232675 0.972049 -0.0313564 -0.418811 0.387631 -0.821182 0.213015 0.973739 0.0803581 -0.699543 0.711255 -0.0689632 0.973928 0.140818 -0.177863 -0.582156 -0.523379 -0.622229 -0.474249 0.713005 0.516441 0.251008 0.705157 0.663135 -0.575788 0.607312 -0.547394 -0.0514358 -0.38931 -0.919669 0.102889 -0.943971 -0.313581 -0.185475 0.817595 -0.545103 -0.774243 0.233773 -0.588131 -0.529651 -0.844964 0.0742012 0.487544 0.440549 -0.753801 -0.909655 0.124012 0.396419 -0.233234 -0.444179 0.865048 0.676421 -0.568191 0.468629 0.784442 -0.328686 0.525943 -0.108875 0.896508 0.429441 -0.79088 -0.00310485 -0.611963 0.643