# vtk DataFile Version 4.0
Generated by libgran
ASCII
DATASET POLYDATA
POINTS 1686 FLOAT
-32.5768 1.86165 5.66229 -31.1014 1.22109 6.72701 -33.3937 1.92332 4.07692 -32.4058 2.94894 5.1603 -32.7705 -1.61917 6.72169 -34.0451 2.45332 3.08631 -30.4225 0.081553 11.396 -29.7813 -1.507 11.823 -31.1705 0.608918 10.4313 -31.0075 -0.423412 8.97889 -30.8717 1.30514 9.07161 -30.3676 1.59677 7.89704 -28.8832 -3.00257 14.3024 -28.1887 -2.40484 13.3388 -28.5692 -1.32366 13.3701 -28.3782 0.376691 12.9876 -27.8469 0.782383 13.7313 -27.9889 1.39055 12.3503 -29.2138 -5.08178 12.0149 -29.635 -7.29321 13.1865 -29.6543 -6.06761 12.6712 -30.0172 -6.51441 14.3226 -29.0266 -8.10893 12.3232 -29.9117 -6.07693 15.4477 -31.3723 -6.02084 15.4492 -32.3059 -6.33962 16.1434 -32.1661 -5.19519 16.7915 -32.1173 -5.84165 19.8315 -33.3557 -6.74438 19.632 -32.4083 -5.6829 18.4458 -31.3495 -6.17507 20.8647 -30.1408 -7.50655 21.0781 -34.1859 -6.8176 21.095 -31.2556 -4.89586 17.7201 -27.5542 -7.81386 19.56 -28.3149 -9.02127 19.6167 -26.2863 -8.13585 19.3218 -25.2032 -8.16089 19.085 -24.6757 -6.72793 20.0567 -25.1721 -5.98742 21.5563 -24.5249 -5.26483 19.9243 -27.4399 -9.93473 20.7015 -19.5168 -13.1583 23.4047 -20.3872 -12.7767 22.4747 -21.8037 -13.4393 22.6531 -18.8396 -12.0382 24.8738 -20.1406 -11.6147 25.3531 -23.3745 -14.005 23.016 -24.8926 -11.9259 19.9303 -24.0017 -11.8309 18.849 -24.6169 -12.9694 20.7069 -25.9844 -12.2711 21.0708 -23.9951 -13.851 21.906 -26.5775 -10.9282 21.5839 -23.6793 -13.4534 18.0125 -24.2647 -14.8071 17.1719 -23.7889 -17.0502 18.0014 -23.9062 -17.209 16.6863 -24.7123 -16.0425 16.9191 -22.1129 -16.8367 18.367 -22.2914 -17.47 15.7081 -20.5089 -17.1668 18.3341 -20.6867 -18.0931 18.9617 -22.5422 -16.8072 11.5554 -23.6806 -16.8623 11.727 -23.2173 -15.2616 11.9417 -21.2947 -17.2646 11.6046 -21.9584 -18.283 10.48 -20.4604 -16.7259 13.1825 -20.8441 -16.8773 14.7572 -37.5612 16.981 4.49652 -37.9428 16.4498 2.62307 -37.6477 15.5207 2.40048 -36.5979 17.7514 5.50796 -35.8833 17.7705 6.34042 -35.0765 18.3485 6.21775 -35.1419 17.743 7.01093 -41.069 15.513 2.63792 -42.0899 16.2407 2.19708 -40.2765 16.9701 2.1534 -40.1779 15.1225 3.17575 -41.1429 13.718 2.64585 -41.8058 12.6017 3.0197 -42.4136 11.398 3.65225 -46.75 11.7136 4.15471 -47.0991 10.7386 3.60217 -47.7635 12.955 3.5977 -45.9683 13.2786 5.11964 -43.3417 10.8646 3.66599 -42.5398 9.97393 2.58642 -43.1316 10.3567 1.46304 -42.9274 9.49237 0.743518 -42.5349 8.5772 1.97295 -43.2656 11.9493 0.726129 -44.5873 10.8268 1.22571 -43.5676 12.4778 -0.46676 -42.6873 7.19465 1.3793 -42.6879 6.97792 2.98529 -44.8526 10.123 -5.58436 -44.3532 10.2614 -6.80887 -44.831 8.54409 -6.60996 -46.3029 11.6671 -6.54998 -47.0399 11.0633 -7.03568 -47.0522 11.4833 -5.18463 -48.2373 10.5716 -7.54639 -47.7892 10.8796 -5.67034 -45.2722 6.80076 -6.43774 -46.2961 11.5166 -3.14842 -47.2143 11.5516 -4.12418 -46.1429 11.2782 -1.95442 -46.2417 10.8637 -0.913827 -46.7457 10.2777 -0.102606 -45.7539 10.2036 0.282102 -48.0173 11.4315 0.15732 -45.9372 11.2872 1.62543 -44.7365 6.13633 -10.4049 -44.6036 6.13731 -12.1098 -43.9733 5.10136 -10.5612 -44.7616 7.42053 -10.0611 -45.3741 8.59723 -10.2716 -46.5463 8.5658 -9.1112 -43.8941 3.60684 -9.76801 -47.6801 8.08887 -8.74042 -43.7462 3.52236 -5.871 -43.5906 4.85612 -5.6989 -44.9046 5.132 -5.98148 -42.8994 6.3703 -5.63328 -25.5415 14.3255 19.7306 -26.178 15.0132 20.674 -24.8955 15.7449 20.053 -26.6841 13.1977 18.7809 -28.312 12.9052 20.3568 -28.6679 10.4883 18.013 -29.2524 12.2184 17.6072 -29.1529 9.38203 17.5865 -28.4084 8.62059 17.7922 -28.5901 12.4927 16.9099 -30.6629 8.62113 17.8791 -29.972 9.60873 16.3871 -30.8639 7.88805 19.3854 -25.9321 5.4882 12.2145 -25.6827 4.40678 11.9672 -26.3451 6.54195 12.9125 -27.841 5.82204 12.5531 -27.1462 3.53452 12.5261 -26.76 3.31787 11.0906 -27.6005 2.80135 13.8362 -26.3092 2.54535 9.97143 -25.8621 2.71467 9.00958 -29.027 9.59696 15.1961 -30.271 9.55755 14.7283 -27.8969 10.0058 14.4844 -30.2809 8.27392 13.4904 -31.4517 9.63435 13.6885 -30.7733 7.05521 13.1834 -29.3591 6.65168 12.8487 -33.8214 7.06811 4.75498 -34.9933 6.59665 4.33977 -33.1928 7.9309 5.26397 -32.6837 6.29671 5.76488 -36.5497 6.04446 5.34766 -34.4204 4.50922 6.10526 -37.7385 6.6924 5.23819 -37.8907 6.88295 3.74316 -41.0463 5.75885 4.55062 -39.5361 5.21656 4.2223 -42.2744 6.26047 4.47816 -42.9984 5.86651 2.83638 -38.6383 6.69575 3.04539 -38.7441 4.36447 5.24647 -32.0258 6.97031 10.944 -31.5698 9.46944 10.466 -32.7293 9.49081 11.7778 -32.8329 9.62707 12.8717 -33.5533 8.50756 13.1592 -31.8861 11.1356 13.2792 -33.8421 7.0793 13.5653 -34.3614 4.04386 8.74922 -33.7043 4.08756 9.9043 -33.7626 4.0877 6.85586 -32.9171 4.50198 10.9816 -26.0809 23.8739 29.1383 -26.8703 22.8666 29.7926 -27.4379 24.1293 30.0183 -24.8442 23.6361 28.7116 -25.4477 24.8562 27.8005 -25.8106 25.4649 26.5836 -23.0208 24.6339 31.3084 -22.7549 24.9027 33.623 -23.6707 25.4526 34.7766 -22.4414 24.6914 32.3482 -21.9625 24.4126 31.3858 -23.922 26.4084 31.8556 -23.6675 25.5739 36.0078 -25.3464 28.498 36.3954 -24.8405 29.4094 37.2239 -25.882 30.3528 36.6471 -25.7868 27.9311 35.5507 -24.9095 27.1808 35.1741 -23.1343 29.8342 38.1022 -25.74 26.3964 34.5249 -20.549 26.5912 38.1728 -20.6128 25.3093 38.5202 -20.4277 27.6781 38.0393 -19.3326 28.357 38.7084 -20.3834 29.1703 38.2793 -17.7502 28.063 39.3541 -17.8927 29.2595 38.8509 -21.3663 30.1214 38.1193 -19.4666 30.1652 37.5746 -29.0921 25.2296 38.0192 -29.1333 26.4355 35.6944 -31.5898 24.6128 36.2142 -31.3823 23.5203 35.3277 -30.9317 22.9626 33.5659 -27.8432 25.1476 38.4811 -32.2488 20.4479 31.6729 -32.9184 21.1287 33.1867 -31.0176 20.5645 31.1813 -30.151 20.488 30.6882 -33.1717 22.1201 34.4679 -33.9424 21.4875 34.3912 -35.7968 21.5107 34.3675 -36.6122 21.2149 33.1398 -36.0696 20.4487 32.6342 -37.8205 22.601 32.4808 -38.1775 22.2886 34.1354 -38.6822 23.0842 33.2399 -36.9533 20.338 34.5425 -38.0549 23.1564 35.7992 -38.3384 24.34 34.009 -41.8219 23.7623 37.5128 -41.2468 24.8792 37.077 -40.3718 24.1175 36.4491 -39.0038 24.0613 36.0436 -41.7532 25.28 34.4221 -37.9113 24.258 35.6008 -34.5154 6.81633 22.4959 -34.4333 5.56526 22.9373 -35.9409 6.5467 23.3043 -33.1963 7.1214 21.5543 -34.4665 8.20276 22.025 -31.7073 6.27555 20.8155 -30.767 5.87592 19.7832 -31.2292 5.14627 19.0326 -29.7121 5.81265 18.7847 -31.6807 4.13306 18.2994 -31.3065 3.47358 19.5187 -27.7217 4.80243 17.6613 -27.5607 5.89195 17.3973 -39.3722 6.96564 22.8016 -39.7031 5.93103 23.5685 -41.1279 5.5403 22.8891 -39.7597 8.22846 23.5034 -41.0941 7.93486 22.9589 -37.7443 5.36123 20.2585 -37.9982 6.64859 21.3839 -36.9837 4.87895 20.9299 -36.2295 4.41724 21.3969 -34.7681 5.24431 20.6002 -35.1937 3.80126 21.5616 -30.1531 15.5542 23.2978 -31.1728 15.4046 24.138 -29.8338 15.3177 25.1538 -29.1089 15.346 22.4577 -30.02 14.7812 21.572 -32.2474 16.0516 24.421 -31.8759 17.2174 25.6856 -30.8727 18.1643 27.0452 -32.4279 9.64983 20.7956 -31.4044 9.59093 21.6071 -30.9453 10.7718 20.7702 -33.5618 10.3446 20.7992 -34.2508 9.14543 21.3584 -29.8435 11.1779 21.5676 -29.923 12.1743 21.5373 -29.9291 19.6959 27.2954 -29.764 18.1223 27.2088 -30.6371 19.8765 29.4798 -32.0916 19.4902 28.5527 -29.2017 16.7064 27.5541 -28.2737 15.8741 28.5134 -32.1541 19.734 26.1772 -32.8008 18.9149 27.3145 -32.393 21.0407 26.2378 -34.0689 21.3288 25.9483 -35.5838 20.7575 26.114 -35.8211 21.9773 24.2735 -5.69793 24.9511 42.5841 -4.75395 24.7531 42.8481 -7.00443 24.7113 42.4782 -5.26807 24.0946 42.2986 -7.72613 26.0293 43.3535 -8.67068 24.6794 42.7394 -8.56317 25.7705 42.8714 -8.49248 26.6697 43.3031 -4.76287 23.0063 42.6849 -3.51982 23.4424 42.1793 -4.65799 21.279 42.8686 -9.52321 23.8342 41.6383 -6.29095 19.4462 43.782 -6.04749 20.3278 42.5458 -6.99819 18.1861 43.7671 -7.38131 17.1446 43.9236 -4.41441 20.5621 43.8761 -0.815659 24.4226 43.3664 -1.74472 24.6363 42.4395 -2.20818 23.4882 42.4978 0.617686 25.6225 43.1963 -1.30856 26.145 41.8498 -2.52311 22.2685 42.463 -1.13085 27.95 41.8919 1.98771 29.7178 42.4563 2.42183 28.5008 43.4721 -0.766639 29.4904 41.3157 3.41343 27.7716 42.928 -1.92271 29.2676 42.5517 -19.5819 34.8613 45.2091 -18.4465 34.1849 45.0626 -19.8258 34.969 46.8905 -20.9466 34.5662 45.3849 -17.6042 33.04 47.6691 -18.0226 33.6637 49.1308 -17.0406 32.1918 46.2667 -14.8674 30.7357 44.4041 -15.6047 30.8617 45.5034 -14.138 29.2511 44.4453 -16.6506 30.9324 45.7506 -16.6038 29.9623 46.889 -15.8057 29.2671 46.3704 -12.924 29.2017 45.1877 -13.7425 28.9466 45.9407 -16.4718 29.4309 48.3845 -11.1562 25.6919 46.506 -12.373 26.1777 46.7445 -10.9414 25.9781 45.5723 -10.2085 25.6867 46.187 -12.5684 27.3294 47.6185 -13.1494 26.5045 48.5448 -13.0425 28.805 47.252 -10.0726 26.9549 45.0819 -14.673 28.8366 46.7665 -9.44056 28.5427 42.68 -8.98542 27.2968 42.5099 -10.1957 28.4198 44.0359 -10.2351 29.4189 44.0178 -10.9998 28.722 42.5369 -10.1909 28.936 44.8923 -19.2251 38.5287 39.9765 -19.8525 38.314 38.1897 -18.7365 39.7355 40.2484 -19.6349 40.8679 39.5344 -19.1226 41.2516 40.3027 -20.0631 41.5456 40.1322 -20.8066 42.1342 39.3333 -19.516 37.6281 37.3829 -20.9934 38.4438 37.4977 -19.3487 42.735 40.3437 -21.825 45.5293 41.9929 -22.9715 44.1165 42.2404 -23.4186 44.949 42.9226 -22.7434 42.7518 41.468 -23.7341 42.7102 42.9707 -21.6241 42.7228 40.016 -20.0922 43.3236 39.5447 -24.7521 46.8186 43.1888 -24.4776 46.9814 41.4057 -23.991 47.582 43.9672 -24.3206 45.7761 43.8571 -24.6026 46.3686 40.3046 -24.2131 47.9249 40.1951 -22.3253 46.8532 45.9273 -22.06 47.7619 49.1604 -22.4434 48.469 48.1015 -23.7142 48.717 48.8264 -21.7003 48.0878 46.7872 -21.3338 49.3436 45.5643 -24.8911 48.4738 48.8487 -15.7894 29.4326 41.5912 -15.0973 28.9832 40.5486 -15.3298 30.2945 40.1147 -14.873 27.4633 40.8514 -16.4949 30.4182 39.1586 -13.9592 27.1967 42.2086 -12.5045 28.0491 42.3632 -17.9709 30.2161 38.2385 -18.3148 31.1835 36.9417 -17.6232 30.4615 36.9242 -17.4439 31.3365 36.4746 -18.6084 32.7851 38.4092 -18.2056 32.7111 39.5815 -21.0793 31.5095 40.0465 -21.6239 32.1189 38.5992 -21.7811 36.716 42.8348 -23.1049 35.8045 43.5182 -20.9952 35.7708 42.3279 -21.3125 35.0783 41.2976 -23.6474 34.1977 44.4521 -23.8516 35
[...]
POINT_DATA 1686
FIELD FieldData 1
normals 3 1686 double
-0.568034 0.441632 -0.694477 0.907384 -0.198934 0.370242 -0.24886 -0.379963 -0.890896 0.738975 0.645653 0.192479 -0.623911 -0.70102 -0.345406 -0.402536 0.909957 -0.0997117 -0.716404 0.69739 0.0203121 -0.0752429 -0.891161 0.447405 -0.0315913 -0.170025 -0.984933 0.194598 -0.862305 -0.467506 0.330379 0.866247 -0.374787 0.173661 -0.574617 -0.799785 -0.00938113 -0.94607 0.323827 0.685159 -0.348338 -0.639702 0.304657 0.732837 -0.608386 -0.113714 0.967515 0.225795 -0.645073 0.561823 -0.517914 0.503016 0.0463484 -0.863034 -0.724552 -0.645979 -0.240282 -0.264864 -0.885742 -0.381192 -0.284113 0.339853 -0.896538 -0.647085 -0.106949 0.754879 0.873293 0.0700195 -0.482138 0.752664 0.544431 0.37026 -0.707934 0.600523 0.371755 -0.225717 -0.919304 0.322385 -0.0859065 0.22513 0.970534 0.447255 0.554093 0.7021 -0.791142 -0.348643 0.502536 0.156254 0.712842 -0.683697 0.320465 -0.88752 0.331074 0.888287 -0.443958 -0.117678 -0.0390793 0.275425 0.960528 0.996362 0.0741911 -0.0419361 0.85546 0.324652 0.403472 0.0947115 -0.882755 0.460189 0.412446 -0.646642 -0.641672 0.670566 0.621608 0.404901 -0.143041 0.811343 0.566799 -0.353289 -0.0708289 0.932829 0.293848 0.651762 -0.699185 0.780325 -0.0307029 0.62462 -0.169453 0.887936 -0.427616 -0.700874 -0.506348 -0.502382 -0.715643 -0.156222 0.680771 0.906731 0.411016 -0.0943663 -0.394209 0.834518 0.38494 -0.855159 -0.409468 -0.317865 -0.580616 -0.725396 0.36971 0.310271 -0.630422 -0.711548 0.856282 -0.31809 0.40694 -0.511182 0.380192 0.770809 -0.234515 -0.563515 0.79212 -0.0820097 0.962727 -0.257741 0.0121314 -0.992087 -0.124968 -0.597597 -0.361646 -0.715604 0.773402 -0.134004 0.619591 0.656095 -0.292794 -0.695565 -0.149996 0.873704 -0.462755 0.902619 0.347535 -0.253967 0.958713 0.0317872 -0.282594 0.701379 -0.677644 0.221057 0.879149 0.248704 -0.4065 0.518013 -0.586718 -0.622435 -0.6204 -0.641768 -0.45082 -0.157091 0.95893 -0.23617 0.729526 0.129286 0.671622 0.0657724 -0.889081 -0.452999 0.104792 0.409471 0.906285 -0.488576 -0.560894 0.66835 0.183244 0.145965 0.972171 -0.198334 -0.385184 -0.901275 -0.493424 0.543984 -0.678685 0.780027 0.624511 0.0392762 -0.0653791 -0.60547 0.793178 0.741392 -0.0274792 0.67051 0.806771 0.577991 -0.122668 0.0356208 -0.898543 0.437437 -0.985288 -0.170869 -0.00340877 0.828084 0.558623 -0.0470837 0.855456 0.508052 0.100388 -0.109517 -0.896397 -0.42951 -0.55338 -0.219939 0.803367 -0.0544718 -0.983795 -0.170819 -0.574938 0.788321 0.219082 -0.924099 -0.186668 -0.333461 -0.43859 0.453113 -0.776097 -0.548308 0.824738 0.13844 0.873554 -0.450381 -0.184554 0.0716965 0.440248 0.895009 -0.520103 0.823006 -0.228373 -0.315891 -0.041304 -0.947896 0.0766575 -0.956482 0.281541 0.386112 0.769614 -0.508539 -0.935624 -0.352883 -0.00896098 -0.688141 -0.241095 -0.684351 -0.229147 -0.426061 -0.875194 -0.229686 -0.642794 0.730794 -0.276418 0.673741 0.685322 0.222936 0.812139 -0.539195 -0.254834 -0.905134 -0.340284 -0.17778 0.467418 0.865976 -0.914771 -0.136347 0.380268 -0.57152 -0.65115 0.499368 -0.282596 -0.355392 -0.890975 0.165472 -0.0473852 0.985076 -0.186443 -0.838197 0.512509 0.508815 -0.754417 0.414682 -0.409391 -0.719433 -0.561083 -0.355618 0.515955 0.779311 0.256831 -0.930467 0.261284 -0.760856 0.344481 0.549937 0.230958 0.270365 0.934645 -0.510742 0.809343 -0.290011 -0.414266 0.813241 0.408683 -0.305981 0.459074 0.834042 -0.173179 0.460056 -0.870838 0.457127 -0.5759 0.677771 0.280842 0.825124 -0.490202 -0.893399 0.351574 0.279703 -0.278736 -0.383004 0.88069 -0.377915 -0.918617 0.115427 -0.855087 -0.0939258 -0.509906 -0.604357 0.779073 -0.166726 0.759944 0.554688 0.33883 -0.554072 0.830566 0.0562518 -0.0687245 0.959495 -0.273214 -0.337389 -0.56956 -0.749513 -0.973891 0.118166 0.193836 0.308616 0.849881 -0.427152 -0.805171 -0.558232 -0.200191 -0.775335 -0.264499 -0.573494 0.441022 -0.889827 -0.117076 -0.14342 0.840268 -0.522857 -0.925959 -0.216463 -0.309423 -0.18151 -0.977901 -0.103746 -0.805715 0.566032 0.174442 -0.584071 -0.544435 0.602039 0.106864 0.443158 -0.890051 0.383108 -0.188649 0.904235 -0.916515 0.337168 0.215217 -0.667129 -0.744247 -0.0321733 0.503506 0.716577 0.482699 -0.992366 -0.00332475 0.123286 -0.796335 -0.12802 0.591152 -0.410196 -0.344669 -0.844359 0.34198 -0.605147 0.71892 0.861053 -0.427849 -0.274834 -0.413999 0.597165 -0.687021 0.838135 -0.454925 -0.300953 -0.405915 -0.494337 -0.768677 0.291929 0.863774 -0.410697 0.396006 -0.789288 -0.469259 -0.774788 0.571137 -0.27112 -0.888398 -0.429425 0.162308 0.525794 -0.832958 -0.172399 0.45902 -0.0472811 0.887167 -0.712861 -0.51874 0.471952 0.169596 0.910067 -0.378174 0.678662 -0.724123 0.122737 -0.843588 -0.0334488 0.535948 0.937712 -0.284378 -0.199564 -0.345175 0.681383 -0.645423 0.192995 -0.490835 -0.849608 -0.58491 0.426975 0.689618 0.925291 -0.115311 0.361304 -0.643171 0.074652 -0.762075 -0.0807878 -0.468614 -0.879701 0.940611 -0.303636 -0.151839 -0.133285 -0.736784 0.66286 0.434876 -0.779463 0.450911 -0.449667 0.463516 0.763513 -0.709879 -0.442149 0.548248 0.606345 0.578412 0.545697 -0.114059 -0.541105 0.833184 0.340397 0.930074 -0.138173 -0.174747 -0.887148 -0.427121 0.318874 -0.093293 -0.943195 0.976036 -0.0495929 0.211881 0.279964 0.137137 -0.950165 -0.18883 0.464014 0.865468 0.425691 0.108309 -0.898363 -0.363762 -0.898968 -0.243996 -0.931339 0.363691 -0.0183574 0.811006 -0.34611 0.471674 0.20744 0.874 -0.439423 -0.570273 -0.265332 -0.777424 0.678693 0.684244 0.266807 0.214292 -0.837981 -0.501863 -0.701538 -0.288132 0.651785 0.0992293 0.626675 -0.772937 0.379637 -0.905528 -0.189458 -0.260358 -0.517823 -0.814907 0.704706 0.409453 0.579429 0.359349 -0.873443 -0.328581 0.865272 0.0379248 0.499865 -0.176308 0.981323 -0.0769501 -0.799748 0.306536 -0.516177 0.0775702 -0.443781 -0.892772 0.84091 0.386848 0.378442 -0.908075 -0.340649 0.243635 0.0212163 0.446161 -0.894701 -0.0425028 -0.835827 -0.547345 0.100111 0.640692 0.761243 0.995004 0.0382145 -0.0922278 -0.0557762 0.851546 -0.521304 0.587345 -0.332213 0.738011 0.444929 0.864246 0.23477 -0.927111 0.0995597 0.361321 0.972546 0.143289 -0.183365 0.385911 -0.45554 0.80222 0.957133 0.106726 0.269269 0.225251 -0.968553 0.105673 -0.0177384 -0.123923 -0.992133 0.468382 -0.43383 -0.769682 0.862957 0.373496 -0.340302 0.571935 -0.634702 -0.519657 -0.0976564 0.046174 0.994148 0.659305 0.751351 0.0280873 0.207283 -0.827904 -0.521161 -0.15565 0.945193 0.287026 -0.926308 0.312575 0.210356 -0.928175 -0.289317 -0.234067 -0.112775 0.00653454 0.993599 0.429858 -0.759693 0.487943 -0.557089 -0.466482 0.687057 0.200144 0.154162 0.967562 -0.304579 0.949757 0.0720676 -0.228326 -0.883465 0.409093 -0.0775987 0.713564 0.69628 0.648368 0.306064 0.697097 -0.953415 -0.22006 0.206336 -0.378298 0.896803 -0.229421 0.496659 0.135166 -0.857357 0.871314 -0.191397 0.451862 -0.719462 -0.465764 -0.515207 0.221246 0.388096 -0.894669 0.704707 0.667413 -0.240723 0.786813 -0.58365 0.200696 -0.720745 0.397785 0.56771 0.614442 -0.362335 -0.700839 -0.655786 0.719018 -0.230125 0.874507 -0.483523 -0.0379955 0.0657905 0.0838984 -0.9943 -0.527958 -0.813556 0.243695 0.989102 -0.147169 -0.00419887 0.0764205 -0.199647 -0.976883 0.450692 -0.859129 0.242434 -0.446129 0.470007 -0.761618 0.607136 0.619516 0.49758 0.335267 -0.299552 0.893233 -0.666125 -0.735059 -0.126358 -0.758697 0.344328 -0.553008 -0.869222 -0.360667 0.338188 -0.465165 0.0670685 -0.88268 0.940431 0.322935 0.106313 0.319541 -0.335765 0.88609 -0.179806 -0.805208 0.565076 0.934019 0.343495 -0.0980842 0.527393 0.483573 -0.698579 0.10175 -0.959472 0.262795 0.0624186 -0.0957088 -0.99345 -0.957279 -0.245222 -0.153242 0.381662 -0.332197 0.862542 0.981766 -0.112422 0.153284 0.0706616 -0.677272 -0.732331 -0.117331 0.892157 0.436222 0.488838 0.273646 0.828345 0.514322 0.673243 0.531241 -0.951434 -0.280744 0.126316 0.0721306 -0.339646 0.937784 0.531169 0.841231 0.100944 -0.182472 0.975528 -0.122673 -0.871466 -0.223656 0.436492 0.570686 -0.435104 0.696421 0.491114 0.561267 0.666173 0.429318 0.858338 -0.280964 0.594396 -0.715258 -0.367558 0.69342 -0.216411 0.687266 -0.761047 -0.602709 -0.239897 -0.0321485 -0.700596 0.712834 0.960151 -0.131717 0.246498 0.594827 0.791744 -0.139001 -0.051836 -0.0274031 0.99828 -0.833675 0.51492 0.19961 -0.842212 -0.226795 -0.489124 -0.672694 -0.344543 0.654807 -0.256841 -0.861182 -0.438631 -0.51412 -0.658561 -0.549525 0.42986 -0.856562 -0.285522 -0.792383 0.418733 0.443612 0.94398 -0.198001 0.264002 0.0706816 0.899245 0.431697 -0.873861 -0.450653 -0.182424 -0.76635 0.640445 -0.0503819 -0.837032 -0.2588 -0.482079 -0.438785 -0.890221 0.122371 0.804265 -0.454138 -0.383296 0.543668 -0.837062 0.0612582 0.0213294 -0.394498 -0.918649 0.17193 -0.928985 0.327761 0.415396 -0.0474105 -0.908404 -0.879167 -0.331093 -0.3427 0.496046 -0.710408 0.499259 -0.300086 0.120132 0.946317 0.885141 0.434425 0.166736 -0.0439182 0.648174 -0.760225 -0.50738 -0.499949 -0.701866 0.548204 0.765512 -0.336845 0.480075 0.860495 0.170518 0.192445 -0.719736 0.667042 -0.302361 0.944511 -0.128364 -0.196776 0.247901 -0.948591 0.237344 -0.969102 0.0671494 -0.666569 -0.595884 0.447893 0.754252 0.239863 -0.611203 -0.489507 0.373025 0.788185 -0.641182 0.0650922 0.764624 0.494182 -0.611318 0.618122 0.397302 0.0426692 0.916696 -0.72358 -0.360118 -0.588852 0.753705 -0.336992 -0.564239 0.335361 0.286683 0.89741 -0.190066 -0.511198 -0.838184 0.271479 -0.803408 -0.529938 -0.465775 -0.677403 0.569367 0.457986 -0.681196 0.571158 -0.580098 0.748145 -0.322126 -0.533386 -0.222046 0.816207 0.264738 -0.917238 0.297638 0.75599 0.631784 0.171255 -0.0625266 0.376715 0.924216 0.665458 -0.309349 0.679315 0.732898 -0.291403 0.614772 -0.48389 0.194405 0.853263 0.947741 -0.00519275 -0.318999 0.214842 0.286211 -0.93377 0.288454 0.95727 0.020708 -0.292492 0.132378 0.947061 -0.762519 0.518349 -0.387143 -0.0789437 0.982037 -0.171383 -0.867977 -0.486753 -0.09843 -0.799242 0.359988 0.48127 -0.344099 -0.885888 0.311126 0.0441385 -0.482846 0.874592 0.00474885 0.516213 0.856447 -0.759948 -0.180673 -0.624368 -0.0393896 0.999059 -0.0181443 0.44644 0.368511 0.815408 -0.180982 0.153826 -0.971382 0.0421546 0.838382 -0.543451 -0.940489 0.293942 -0.170524 -0.428211 0.677712 0.59778 0.512277 0.383771 0.768304 -0.231268 0.972407 -0.0306517 0.517508 -0.839698 0.164598 -0.959872 -0.0240266 0.279407 0.202122 0.805649 -0.556845 0.841572 0.461016 -0.281462 -0.304907 -0.951778 -0.033923 -0.752074 -0.119269 0.648197 0.533005 -0.412901 -0.738525 -0.45774 -0.454487 0.764143 0.586245 0.383845 -0.713428 0.945667 0.217015 0.242111 0.281611 -0.096219 0.954692 0.556129 0.0666229 -0.828422 0.479565 0.859605 -0.176339 0.149911 -0.946313 -0.286387 -0.681105 -0.679503 -0.27271 -0.291561 0.876885 -0.382185 0.848051 0.441231 0.293472 0.903593 -0.294772 0.310851 0.52016 0.412258 -0.747982 -0.75065 0.660295 -0.0231214 0.222972 -0.793409 -0.56638 -0.63025 -0.53799 -0.559778 -0.426203 -0.903485 0.0454601 0.671709 0.443766 -0.593193 0.0204158 -0.893123 -0.449348 -0.212141 0.41816 -0.883255 0.203877 -0.626743 0.752082 -0.952877 -0.294467 -0.0729007 0.709954 0.36015 0.605192 0.744754 0.492209 -0.450635 -0.523163 0.0923745 -0.847211 0.179284 0.875072 -0.449561 0.870889 0.153008 -0.467055 0.691605 -0.722065 -0.0174935 0.805608 0.42956 0.408013 -0.402811 -0.50359 0.764291 -0.783474 0.354726 -0.510233 0.238895 0.254656 -0.937059 0.910116 0.0424833 -0.412169 -0.413669 -0.869086 0.271232 -0.124168 -0.987737 -0.0946512 -0.193175 0.295257 -0.935685 -0.128834 -0.737733 0.662686 -0.891887 -0.338698 0.2997 -0.883859 0.353702 -0.306086 -0.263637 -0.680227 -0.683949 0.0355754 -0.626172 0.778873 -0.432 0.137015 0.891405 0.425416 -0.843669 0.32748 0.648666 -0.0930348 -0.755366 0.0867887 -0.873033 -0.479876 -0.561877 -0.78 0.275489 -0.418982 0.907151 -0.0391252 -0.669984 -0.163362 0.724179 0.239599 0.96779 0.077292 0.693131 0.18786 0.6959 0.164485 -0.660176 0.732879 -0.528646 -0.848037 0.0369788 0.145999 -0.970907 -0.189799 0.969564 0.0977822 -0.224466 0.909944 -0.399646 -0.11084 0.514665 0.788858 0.335892 0.187376 -0.316569 0.929879 0.748086 0.19155 -0.635355 0.600702 -0.556723 0.573774 0.120464 0.430591 -0.894472 -0.464586 0.120319 0.877316 0.733191 0.41953 0.535187 -0.226542 -0.288603 0.930262 -0.928029 0.372296 0.0125905 0.983188 -0.0331849 -0.179557 0.053583 0.772379 0.632898 0.0759161 0.932158 -0.354003 -0.347464 -0.937682 -0.00473728 0.0223331 0.15978 -0.9869 -0.0999988 0.161885 0.98173 -0.128932 -0.47046 -0.872951 -0.95135 -0.307578 -0.0181522 -0.05636 -0.144562 -0.987889 -0.409393 0.891032 -0.196109 -0.0147932 0.708902 0.705151 0.917573 -0.385791 -0.0960489 0.271071 -0.180067 0.945567 -0.292579 0.647701 -0.703478 -0.83395 -0.484952 -0.263341 0.881506 0.214273 -0.420755 0.110326 -0.0191944 0.99371 -0.262253 0.81587 0.515344 0.23652 -0.173359 0.956036 0.245078 -0.715868 0.653811 0.652455 0.110034 -0.749796 -0.228284 0.696611 -0.680162 -0.649552 -0.554388 -0.520323 0.920321 0.148546 0.361861 0.364309 -0.117131 -0.923883 -0.382326 -0.304085 0.872559 0.138353 -0.115788 0.983591 0.393425 -0.368189 -0.84241 0.116974 -0.993134 0.00155016 0.868658 0.104319 -0.484304 0.553698 0.729246 0.402019 0.75317 -0.317046 -0.576382 0.865113 0.501412 -0.0128266 0.111943 0.818459 0.563555 0.711958 -0.612678 -0.343136 -0.943812 -0.249662 0.216537 0.0820933 -0.975575 0.203751 -0.161758 0.246878 -0.955451 -0.946013 0.323212 -0.0243674 -0.707756 -0.639117 -0.301015 0.340252 0.475394 0.811313 0.0292814 -0.960538 0.276603 0.923371 0.260077 0.282394 -0.219192 0.970089 0.104321 0.90838 0.199521 0.367474 0.299268 -0.527815 -0.79489 0.803879 0.568309 0.175509 0.623468 -0.485131 0.613136 0.746819 -0.381577 0.544665 -0.48637 -0.863366 -0.134328 -0.166038 0.219403 -0.961402 -0.593196 0.239884 0.768488 0.197474 -0.705771 0.680361 0.278234 -0.906407 0.317823 -0.585388 0.649064 0.485835 0.395116 -0.0799171 0.915148 -0.574533 -0.75809 0.308563 -0.716007 0.619831 -0.321158 -0.700895 0.10611 0.705327 0.857511 0.394426 -0.330309 -0.741675 0.598474 0.302898 -0.440449 0.873382 -0.207867 0.951178 0.290248 -0.104958 -0.924341 0.271044 -0.268568 0.471465 0.578898 -0.66528 0.122426 0.988357 -0.0903507 -0.23494 -0.39065 -0.890054 -0.593699 -0.578484 0.559355 -0.00149358 -0.911365 -0.411596 0.784529 -0.306454 -0.539074 0.271511 -0.819396 0.504849 0.786023 0.604911 -0.127478 0.964678 0.258687 -0.0497767 0.590731 0.360398 0.721907 0.780049 -0.520936 0.346627 0.256807 0.370597 -0.892585 -0.188431 -0.585112 -0.788757 0.899811 -0.14432 0.411719 -0.964916 -0.0732913 0.252122 -0.708818 0.116787 -0.695656 0.256098 0.190078 -0.947779 -0.0701784 -0.991274 -0.111586 -0.752728 -0.658319 -0.00394349 0.170497 0.135344 0.976019 0.866512 -0.202857 0.456077 -0.771472 0.118833 0.625068 0.465537 0.349432 -0.813125 -0.0492797 0.943234 -0.328452 0.108667 0.196438 -0.974476 0.157947 -0.746797 -0.646024 -0.876458 -0.405587 -0.259461 -0.750686 -0.0796946 -0.655835 -0.851627 -0.0864886 -0.516963 0.39139 0.192488 -0.899868 -0.677091 -0.358915 0.642439 0.588121 -0.738585 0.329556 0.264496 0.962749 -0.0561872 0.857233 -0.0689715 0.510289 -0.489081 0.848969 0.200128 -0.255169 0.745336 0.615924 0.928218 0.235267 0.288201 -0.892628 0.331983 -0.304964 -0.45728 -0.333399 0.824464 0.337976 0.438864 -0.832569 -0.821192 -0.216558 -0.527965 0.883393 0.297009 -0.362495 -0.881404 0.402331 0.2475 -0.924102 0.176031 -0.33919 -0.32807 0.491152 0.806932 0.501183 -0.657337 -0.562782 0.866567 -0.371812 0.332891 0.99246 0.0114533 -0.122035 -0.078777 -0.949456 -0.303853 0.171238 -0.117807 -0.978161 0.295419 -0.0147501 -0.955254 0.0257565 -0.117781 0.992705 -0.882478 0.429941 0.190744 0.384482 0.612205 0.690926 0.468592 0.809196 -0.354434 0.949595 -0.0486926 0.309673 -0.289857 0.76125 0.58007 0.363256 -0.10927 -0.925259 0.162349 0.539158 -0.826409 -0.283985 0.55288 0.783375 -0.425885 0.87945 -0.212578 0.990101 -0.112783 -0.0835517 -0.0829456 -0.21027 -0.974118 0.940084 0.0960967 -0.327121 0.678843 -0.701722 0.216238 -0.570727 0.821093 -0.00876675 -0.10088 -0.545984 -0.8317 0.176489 -0.978622 0.105598 -0.26124 -0.797818 0.543359 -0.27856 -0.79359 -0.540942 0.0458778 -0.901335 0.430686 -0.898523 -0.106561 -0.425795 0.850816 0.438818 -0.28905 -0.37 0.356957 0.857719 0.505512 0.189548 -0.841742 0.319421 -0.929451 -0.184639 -0.795593 0.369504 -0.480102 0.259778 0.965457 -0.0202036 0.92187 0.334035 0.196407 -0.732148 -0.135174 -0.667598 -0.883968 0.157967 -0.440053 0.120484 0.183682 -0.975574 -0.926163 0.293522 -0.236783 -0.993243 -0.0434466 -0.107613 -0.963201 -0.261436 0.0624151 -0.307594 0.811049 0.49758 0.682036 0.690302 -0.241475 0.714275 0.151872 -0.683188 0.582367 -0.791928 0.18357 0.407726 -0.826479 -0.388191 -0.874273 -0.267272 0.40523 -0.666052 0.725119 0.174864 0.221732 -0.659159 0.718571 -0.501071 0.598901 0.624696 -0.826299 0.207287 -0.5237 0.813322 -0.200295 0.546251 -0.722446 -0.0690199 0.687974 -0.846659 0.230977 -0.479394 -0.75552 -0.134179 0.641238 -0.0128701 -0.00616207 0.999898 -0.310964 -0.892549 -0.326585 0.817068 -0.575761 -0.0299954 -0.740054 0.147713 0.656126 -0.138888 -0.758628 -0.636549 0.284364 -0.944456 -0.164742 -0.149917 0.304057 -0.940784 0.917607 0.102043 0.384167 0.404818 -0.143599 0.903052 -0.327434 0.851029 0.410531 -0.0773335 -0.808506 -0.583384 0.339968 -0.937348 0.0761659 -0.603129 -0.528613 0.597331 0.558645 0.818697 0.132858 0.144097 -0.60263 -0.784903 0.1147 0.388701 0.914196 -0.528243 0.757879 -0.382857 0.827023 0.471037 0.306849 0.324453 -0.762047 0.560371 -0.917449 -0.362166 -0.164693 -0.164556 0.771955 -0.614009 -0.751579 0.260779 0.605907 0.497473 0.725832 0.475067 0.784714 -0.619671 -0.0152115 0.235265 0.0831032 0.968372 -0.142554 -0.110408 -0.98361 0.0863908 -0.815116 0.57282 -0.498755 0.605333 0.620335 -0.957866 0.267542 0.104467 -0.00446135 0.533421 0.845838 -0.293582 -0.64076 0.709391 -0.880384 -0.234054 -0.412483 0.77143 -0.200408 0.60393 0.417144 -0.450755 0.789184 -0.426042 -0.863266 0.270665 -0.109139 0.769605 -0.629124 -0.198934 0.560419 0.803963 -0.109074 -0.921156 0.373598 0.491296 0.733499 -0.469688 -0.948967 -0.22085 -0.225138 0.0916274 0.231908 0.968413 0.822805 -0.498075 -0.273703 -0.311634 -0.596079 -0.739982 0.114628 -0.424568 0.898111 -0.574548 0.775107 0.262876 0.764216 -0.465341 -0.446577 0.410382 -0.180365 0.893899 -0.758087 -0.649251 0.0614557 0.287927 -0.431591 0.854885 0.917026 -0.398665 -0.0114042 0.572679 0.811538 -0.115949 0.543209 -0.421313 0.726236 0.713942 0.613258 -0.337936 -0.789699 -0.586583 -0.179711 -0.383856 0.397618 -0.833399 -0.0952053 0.133178 0.986509 0.0962934 -0.77777 0.621129 0.191499 -0.910948 -0.365379 -0.106675 -0.618157 -0.778782 0.0302479 0.960094 -0.278036 -0.113482 -0.0617118 -0.991622 0.293021 -0.569433 0.76804 0.859353 0.000235399 0.511383 0.898116 -0.11051 -0.425646 -0.860793 0.49612 -0.113578 -0.0431778 0.158939 0.986344 0.843603 0.0773429 0.531369 -0.300308 0.672614 -0.676318 -0.852321 -0.522211 0.0290498 0.664054 0.490147 0.564614 -0.363422 -0.0773121 -0.928411 0.609819 -0.280216 -0.74135 0.0991367 -0.344717 0.933457 0.268567 -0.68547 0.676759 -0.58255 -0.810923 -0.0551208 0.372311 0.792294 0.483379 0.386929 0.827482 -0.406891 -0.0167074 0.205864 0.978438 -0.774603 0.401257 0.488859 0.320622 -0.707881 -0.62937 -0.78893 -0.0280942 -0.613841 -0.633348 -0.737914 -0.233137 0.238712 0.672593 0.700454 -0.999446 0.0326632 -0.00631132 -0.603506 -0.407287 0.685491 0.043055 0.731023 -0.680994 -0.88561 0.445145 -0.132443 -0.507605 -0.806955 0.301928 0.581361 0.610849 0.537477 0.647195 0.635541 0.420981 -0.592491 0.706252 -0.387509 -0.260143 0.964253 -0.0504228 -0.435085 0.357945 -0.826182 0.187066 0.980577 0.0589511 -0.718865 0.690545 -0.0798844 0.96728 0.163547 -0.193963 -0.576372 -0.549331 -0.605004 -0.486454 0.707503 0.512642 0.242898 0.733425 0.634892 -0.618194 0.567468 -0.54389 -0.0702557 -0.42073 -0.904461 0.0383758 -0.903462 -0.426947 -0.250025 0.873226 -0.418287 -0.848972 0.298348 -0.436159 -0.527497 -0.847449 0.0598116 0.377506 0.52279 -0.764317 -0.836471 0.0793437 0.542238 -0.107146 -0.538716 0.835646 0.729323 -0.61806 0.293409 0.84744 -0.387763 0.36261 -0.0282678 0.841072 0.540184 -0.872434 0.0