# vtk DataFile Version 4.0
Generated by libgran
ASCII
DATASET POLYDATA
POINTS 1686 FLOAT
-32.8773 2.28297 6.43899 -31.4625 1.45461 7.45522 -33.7681 2.42887 4.8996 -32.5622 3.31074 5.8842 -33.6709 -0.925794 7.72485 -34.39 3.02641 3.92863 -30.6859 0.26862 12.1009 -30.3285 -1.4108 12.5117 -31.3917 0.918542 11.1802 -31.5034 -0.137065 9.73973 -31.1039 1.55201 9.78785 -30.6283 1.74477 8.58146 -29.5434 -3.07146 14.9215 -28.8366 -2.60166 13.8978 -28.9923 -1.46779 13.9671 -28.5286 0.173948 13.5625 -27.8711 0.473512 14.2538 -28.0247 1.10936 12.8867 -31.2836 -3.83205 13.0618 -33.0452 -4.76069 14.6467 -32.1056 -4.09111 13.9858 -32.0809 -4.53446 15.6773 -33.8919 -5.27271 13.7512 -31.2938 -4.85096 16.5426 -31.6477 -3.58407 17.18 -31.933 -3.20225 18.2881 -30.6403 -3.06793 18.5337 -30.064 -4.52649 21.2102 -31.2402 -3.76653 21.864 -30.5156 -3.67387 20.1617 -29.7891 -5.70773 21.7553 -30.6317 -7.30266 21.595 -30.9527 -3.69124 23.5213 -29.773 -4.03974 18.824 -30.007 -8.03996 19.6345 -30.6226 -9.32502 19.5383 -28.6994 -8.24736 19.5112 -27.5966 -8.19892 19.4059 -27.2774 -6.78472 20.4894 -28.0185 -6.13775 21.9302 -27.172 -5.31235 20.4447 -29.7218 -10.2252 20.6131 -21.3535 -12.5674 23.1096 -22.2901 -12.1702 22.2534 -23.6135 -13.0164 22.3524 -20.8253 -11.5924 24.7624 -22.1818 -11.4288 25.2468 -25.0893 -13.8243 22.6498 -26.9134 -11.6933 19.7499 -25.918 -11.3512 18.8203 -26.4751 -12.7502 20.4274 -27.9562 -12.3494 20.7959 -25.739 -13.627 21.5636 -28.7688 -11.1874 21.4347 -25.0989 -12.8161 18.0334 -25.193 -14.234 17.1045 -24.4497 -16.329 18.0829 -24.1834 -16.429 16.7838 -25.3041 -15.5299 16.7903 -23.0484 -15.7006 18.8765 -22.3618 -16.207 16.2689 -21.4597 -15.5864 19.2582 -21.5209 -16.5746 19.8088 -21.7279 -15.3461 12.2283 -22.8086 -15.727 12.1038 -22.8921 -14.0872 12.4602 -20.4508 -15.4468 12.5846 -20.5047 -16.5002 11.3079 -20.2077 -14.8364 14.3294 -20.9242 -15.2029 15.7443 -36.6825 16.3609 3.55241 -37.3659 15.8444 1.76252 -37.3662 14.8575 1.6017 -35.4494 16.873 4.42529 -34.6882 16.7295 5.20247 -33.762 17.0308 4.97555 -33.9298 16.5235 5.82089 -40.5795 15.3597 1.96512 -41.5412 16.0914 1.41201 -39.6773 16.6683 1.28697 -39.7203 14.9821 2.56101 -40.7939 13.5958 2.22941 -41.4992 12.5833 2.77975 -42.1223 11.5134 3.60773 -46.4203 12.1814 3.8759 -46.7889 11.2293 3.29666 -47.2294 13.4789 3.14087 -45.5765 13.7317 4.81359 -43.0722 11.0295 3.70489 -42.32 9.95175 2.76982 -42.9104 10.1843 1.60531 -42.748 9.21419 1.02305 -42.3758 8.47955 2.37392 -43.0036 11.634 0.611841 -44.352 10.6849 1.34511 -43.355 11.9929 -0.629636 -42.5724 7.02942 1.99238 -42.5859 7.05571 3.61265 -45.1057 8.45673 -4.87755 -44.4753 8.1618 -6.01052 -45.4351 6.72329 -5.53465 -45.9211 9.98051 -6.42637 -46.7543 9.42232 -6.79749 -46.6872 10.2296 -5.08089 -48.021 9.04586 -7.23339 -47.5205 9.67143 -5.45201 -46.3595 5.2416 -5.07242 -45.9281 10.5721 -3.07649 -46.8318 10.5533 -4.06609 -45.8095 10.5737 -1.85505 -45.9643 10.4179 -0.752246 -46.5524 10.114 0.151734 -45.5838 9.96165 0.570968 -47.6252 11.4791 0.113119 -45.6617 11.2815 1.69533 -44.4284 4.67379 -7.98637 -43.476 4.80672 -9.40045 -43.6695 3.6354 -7.83225 -44.6174 5.9209 -7.56551 -45.0342 7.15011 -7.91134 -46.6262 7.08824 -7.48344 -43.995 2.09195 -7.21513 -47.7992 6.64989 -7.77035 -45.9863 1.82255 -3.84531 -45.3879 3.01837 -4.05665 -46.5734 3.6645 -4.30095 -44.2494 4.16469 -4.46229 -25.0444 13.7314 19.9725 -25.6038 14.493 20.9079 -24.2136 15.0417 20.3315 -26.3068 12.7846 18.9779 -28.0068 12.7102 20.5126 -28.391 10.3584 18.3508 -28.9596 12.0536 17.8008 -28.8958 9.21618 18.0653 -28.1442 8.47622 18.3179 -28.3129 12.2424 17.0618 -30.3773 8.45823 18.4841 -29.7834 9.36774 16.9033 -30.4934 7.82639 20.0442 -25.9517 5.15238 12.5335 -25.7061 4.07245 12.2761 -26.3198 6.22054 13.2346 -27.8248 5.45428 13.0534 -27.0876 3.1762 12.9854 -26.8477 2.96028 11.5182 -27.4007 2.41593 14.3212 -26.4912 2.23628 10.3345 -26.1677 2.46253 9.33553 -28.9104 9.29309 15.6607 -30.1797 9.22469 15.2705 -27.8204 9.66918 14.8726 -30.2459 7.88822 14.0917 -31.435 9.2281 14.319 -30.7288 6.64754 13.8692 -29.3318 6.26065 13.4525 -33.7285 7.39174 5.48746 -34.9124 6.93098 5.09488 -33.0752 8.26141 5.9517 -32.6139 6.6416 6.53824 -36.4892 6.47172 6.11769 -34.3996 4.85865 6.84474 -37.686 7.08256 5.91895 -37.8291 7.09006 4.41095 -40.9754 6.05852 5.33782 -39.464 5.48213 5.081 -42.2003 6.55367 5.19808 -42.9368 5.94647 3.6285 -38.5699 6.8131 3.73619 -38.6665 4.76332 6.19885 -32.0899 6.49476 11.727 -31.6928 8.9816 11.1317 -32.8041 9.0046 12.4846 -32.8574 9.16111 13.5794 -33.5286 8.02747 13.9248 -31.9422 10.707 13.9121 -33.7968 6.60857 14.3754 -34.4116 4.05424 9.40747 -33.785 3.8967 10.5696 -33.7663 4.33383 7.54987 -33.0011 4.13813 11.7007 -25.6555 23.001 29.1585 -26.0562 21.7398 29.7196 -25.6745 22.6127 30.7491 -25.3966 23.1203 27.8598 -25.8184 24.6041 28.4108 -26.6025 25.7736 28.4267 -22.8584 23.2719 29.0918 -22.5567 23.6154 31.392 -23.4241 24.2661 32.5305 -22.2678 23.3343 30.1249 -21.8154 22.988 29.1717 -23.6435 25.1176 29.5684 -23.4092 24.459 33.7525 -25.466 27.3868 33.7874 -25.1464 28.3945 34.5969 -26.1746 29.1999 33.8212 -25.7772 26.7014 32.9735 -24.8039 26.0131 32.7423 -23.6034 29.0258 35.6378 -25.5043 25.1005 32.1074 -20.926 25.9673 36.2893 -21.0097 24.7103 36.7149 -20.826 27.0472 36.0952 -19.8704 27.8281 36.8598 -20.8832 28.5523 36.2278 -18.3865 27.6648 37.7423 -18.5077 28.8153 37.1368 -21.8739 29.4355 35.8609 -19.9193 29.5463 35.5878 -27.7617 23.5895 33.923 -28.2868 25.8367 34.2028 -30.3478 24.7885 36.3097 -30.1942 23.6323 35.4961 -29.7645 22.9099 33.7897 -26.45 23.3631 33.8332 -31.4308 20.5631 31.9389 -32.0606 21.4502 33.3602 -30.1635 20.3589 31.5875 -29.2941 20.0542 31.1987 -32.2045 22.5314 34.5844 -33.087 22.0827 34.4438 -34.877 22.5175 34.2261 -35.615 22.3637 32.9256 -35.196 21.4837 32.4929 -36.6105 23.6982 32.0605 -37.1191 23.5589 33.6989 -37.5691 24.2114 32.6687 -36.2784 21.6376 34.2987 -37.2126 24.6206 35.2483 -37.3706 25.5674 33.308 -41.1619 25.2049 36.5099 -40.5992 26.2914 35.9895 -39.6297 25.5115 35.5515 -38.2265 25.4863 35.2882 -41.0508 25.8723 33.6293 -37.1057 25.6985 34.9315 -33.7836 6.90735 23.5343 -33.5754 5.72038 24.0951 -35.0882 6.66411 24.5329 -32.6086 7.16797 22.4069 -33.8724 8.23591 22.9233 -31.1911 6.28135 21.5804 -30.315 5.88873 20.4906 -30.8665 5.19034 19.7712 -29.3349 5.77329 19.4229 -31.403 4.19569 19.0706 -31.0021 3.52703 20.2763 -27.4389 4.67315 18.1905 -27.2849 5.77391 17.9731 -38.5685 6.90793 24.3493 -38.7828 5.9376 25.2328 -40.2515 5.44249 24.7408 -38.942 8.21613 24.971 -40.3076 7.8291 24.5856 -37.1197 5.14424 21.8064 -37.3186 6.51213 22.8396 -36.2839 4.74176 22.4399 -35.4743 4.34308 22.8708 -34.1192 5.12954 21.871 -34.4054 3.77767 23.0016 -29.5203 15.4809 23.4917 -30.5547 15.3883 24.3221 -29.2346 15.157 25.3399 -28.5003 15.1755 22.6515 -29.4641 14.7592 21.7397 -31.5762 16.0976 24.6488 -31.131 17.1426 25.9927 -30.068 17.9035 27.4218 -32.0824 9.60441 21.2961 -30.94 9.53716 21.9286 -30.6254 10.7325 21.0467 -33.2191 10.2826 21.4244 -33.7958 9.10703 22.1392 -29.3928 11.1213 21.6335 -29.4782 12.1175 21.6519 -28.9814 19.3149 27.7764 -28.9719 17.7408 27.5948 -29.779 19.5283 29.9501 -31.1722 19.4689 28.8639 -28.5941 16.2446 27.8365 -27.8178 15.2242 28.7478 -30.8998 19.6028 26.4957 -31.8593 19.0285 27.5598 -30.7959 20.9282 26.5163 -32.3078 21.6157 26.0505 -33.9258 21.4425 26.0771 -33.7826 22.6255 24.2639 -6.49126 25.0414 41.6345 -5.53945 24.9136 41.9133 -7.78181 24.723 41.5408 -6.01291 24.1934 41.4062 -8.57937 26.0506 42.3316 -9.44623 24.6183 41.7945 -9.39747 25.7195 41.8615 -9.37794 26.6453 42.2388 -5.45072 23.1622 41.8636 -4.23055 23.6332 41.3341 -5.25115 21.4611 42.1713 -10.2482 23.6741 40.7368 -7.00216 20.0401 43.4677 -6.78833 20.8136 42.156 -8.0765 19.1039 43.7078 -8.74035 18.2601 44.0291 -4.94103 20.8673 43.2389 -1.6088 24.7381 42.5835 -2.53805 24.9006 41.6464 -2.93205 23.7264 41.6935 -0.251772 26.0271 42.4414 -2.16126 26.4257 41.0581 -3.20592 22.4966 41.6662 -2.04723 28.2358 41.1044 0.954421 30.1861 41.6644 1.39037 29.0079 42.7241 -1.74326 29.7895 40.5289 2.43135 28.3129 42.2296 -2.8785 29.523 41.7756 -21.3476 33.5181 42.6601 -20.0727 33.1553 42.5551 -21.5804 33.8841 44.3063 -22.5683 32.899 42.9875 -19.0522 32.5422 45.3109 -19.6429 33.1805 46.7052 -18.3091 31.675 44.0072 -15.83 30.3469 42.5549 -16.7377 30.4204 43.5237 -15.0076 28.9221 42.732 -17.8117 30.4124 43.6037 -17.8719 29.4524 44.75 -16.9529 28.818 44.3729 -13.9247 28.9674 43.6554 -14.8298 28.6536 44.2752 -17.9365 28.9129 46.247 -12.2311 25.5471 45.2259 -13.4828 25.9873 45.3388 -11.9343 25.8402 44.3171 -11.2565 25.577 45.0036 -13.8317 27.1382 46.1646 -14.4458 26.2932 47.0505 -14.3354 28.5699 45.6817 -11.0575 26.8483 43.9117 -15.8674 28.4761 44.9473 -10.4135 28.4262 41.5066 -9.89643 27.197 41.4068 -11.1926 28.2996 42.8484 -11.2542 29.2973 42.8191 -11.9732 28.5685 41.3307 -11.2167 28.8242 43.6994 -20.3413 36.3286 39.4494 -20.3386 36.8364 37.6124 -19.6385 37.1308 40.2442 -19.8386 38.6587 39.7706 -19.5616 38.6168 40.7305 -20.243 39.2866 40.4356 -20.432 40.2908 39.733 -19.9546 36.3018 36.7173 -21.0742 37.5689 36.7641 -19.348 40.0143 41.235 -21.2696 42.9543 43.1472 -22.8048 42.1436 42.5495 -23.1862 42.8577 43.3878 -22.743 41.0742 41.3817 -24.1822 41.0537 42.4632 -21.2372 40.9715 40.3407 -19.5369 41.0185 40.5325 -23.8138 44.9321 44.1538 -22.8228 45.4727 42.7371 -23.2172 44.9892 45.3407 -24.0493 43.6616 44.3777 -22.697 45.3128 41.4872 -21.8241 46.5013 42.1286 -22.7918 43.0204 47.0996 -23.5646 42.6689 50.3552 -23.2474 43.7617 49.6674 -24.5495 44.3208 50.1075 -22.2047 43.5102 48.5383 -21.0028 44.7712 48.1255 -25.6444 44.6473 49.7345 -16.814 29.2643 40.1195 -16.017 28.7588 39.183 -16.1912 30.0457 38.6582 -15.796 27.2613 39.5837 -17.2219 30.0665 37.5519 -14.9399 27.0602 40.9891 -13.4795 27.9026 41.1451 -18.539 29.7231 36.4503 -18.7345 30.5813 35.05 -18.0162 29.8985 35.1837 -17.8129 30.75 34.7003 -19.1507 31.9678 36.4686 -18.8287 31.6614 37.6282 -21.7945 30.6144 37.705 -22.2049 31.5101 36.3664 -22.6719 35.0425 41.2656 -24.1979 34.1999 41.3746 -21.8651 34.1269 40.7377 -22.0865 33.7276 39.5405 -25.1036 32.5193 
[...]
POINT_DATA 1686
FIELD FieldData 1
normals 3 1686 double
-0.529576 0.507347 -0.679815 0.885311 -0.321018 0.336411 -0.361219 -0.361455 -0.859576 0.844705 0.520424 0.125028 -0.834903 -0.508089 -0.211621 -0.26061 0.958996 -0.111396 -0.569125 0.820396 0.0552067 -0.211762 -0.859026 0.46608 -0.136673 -0.170474 -0.975838 0.0249216 -0.885134 -0.464669 0.424453 0.803943 -0.416552 0.0511471 -0.611181 -0.789836 -0.165546 -0.932357 0.321411 0.54122 -0.462561 -0.702223 0.385555 0.671313 -0.632998 0.0781806 0.970422 0.228407 -0.579332 0.670857 -0.462953 0.42564 -0.0350107 -0.904215 -0.880286 0.429628 0.201287 -0.997906 0.0191131 -0.0617865 -0.0582977 0.688692 -0.722707 -0.0336082 0.24535 0.968852 0.151213 -0.53113 -0.833688 0.820732 -0.561852 -0.103544 0.466837 0.705041 0.533835 -0.752136 -0.323221 0.574299 0.54056 -0.188903 0.819823 0.867467 -0.435587 0.240343 -0.308724 0.324371 0.894133 0.415881 0.417036 -0.808161 -0.592558 -0.745657 0.304746 -0.250012 -0.849272 -0.465007 0.596169 -0.249083 0.763243 0.32666 -0.782914 -0.529471 0.782907 0.381766 0.491234 0.167258 -0.903297 0.395069 0.524674 -0.589167 -0.614492 0.578106 0.637606 0.509169 -0.258926 0.776602 0.574324 -0.482165 -0.129634 0.866437 0.364346 0.695766 -0.619001 0.733517 0.00309213 0.679664 -0.287259 0.911123 -0.295528 -0.649279 -0.513893 -0.56067 -0.674132 -0.332356 0.65961 0.841812 0.539739 0.00594091 -0.51473 0.703352 0.490254 -0.801669 -0.475534 -0.362208 -0.449657 -0.852886 0.265318 0.54573 -0.510849 -0.664238 0.887976 -0.204007 0.412164 -0.593063 0.196794 0.780736 -0.151906 -0.672848 0.724016 -0.219554 0.965214 -0.141981 0.273418 -0.954032 -0.122739 -0.367514 -0.463823 -0.806103 0.598033 0.0328957 0.800796 0.864401 -0.0671155 -0.498303 -0.256374 0.83207 -0.491866 0.803272 0.595569 -0.00725648 0.957138 0.289151 -0.0166914 0.785471 -0.481373 0.388993 0.846731 0.506884 -0.1616 0.797928 -0.362549 -0.481527 -0.282757 -0.743418 -0.606118 -0.366259 0.896385 -0.249697 0.47917 0.261858 0.837751 0.425291 -0.791481 -0.438959 -0.236056 0.348569 0.907071 -0.480476 -0.715007 0.507847 0.304039 0.148343 0.941039 -0.379355 -0.368162 -0.84885 -0.379064 0.618804 -0.688035 0.929014 0.363714 -0.0681567 -0.167771 -0.50721 0.845335 0.758381 -0.205959 0.618417 0.926151 0.301252 -0.226919 -0.033766 -0.8265 0.561923 -0.995453 -0.094843 0.00881529 0.868399 0.482053 -0.116225 0.892922 0.448928 0.0339689 -0.180608 -0.937443 -0.297627 -0.524726 -0.0750024 0.847961 -0.0983841 -0.994948 -0.0199752 -0.508669 0.853992 0.109332 -0.877249 -0.0980794 -0.46991 -0.300482 0.443574 -0.844365 -0.4793 0.876457 0.0457627 0.851538 -0.511041 -0.117136 0.0993098 0.566672 0.817937 -0.491102 0.79919 -0.346576 -0.328731 -0.170887 -0.928834 0.0435576 -0.905532 0.422037 0.397879 0.650558 -0.64689 -0.950473 -0.298564 0.0863777 -0.749255 -0.291688 -0.594588 -0.240156 -0.544596 -0.80358 -0.253716 -0.518304 0.816694 -0.137722 0.867632 0.477752 0.492655 0.572698 -0.655215 -0.467133 -0.865808 -0.179342 -0.0901825 0.667682 0.738964 -0.923421 0.10949 0.36784 -0.675974 -0.418566 0.606516 -0.343298 -0.48595 -0.803741 0.157267 0.139624 0.977636 -0.457231 -0.615892 0.641574 0.372366 -0.723469 0.581323 -0.531391 -0.742246 -0.408283 -0.253839 0.725137 0.64011 0.0991097 -0.88096 0.462696 -0.687261 0.577009 0.441285 0.281341 0.424682 0.860519 -0.385509 0.788085 -0.479901 -0.359213 0.895183 0.263842 -0.683591 0.399052 0.611114 0.268752 0.531982 -0.802974 0.0753262 -0.63934 0.765226 0.494563 0.848061 -0.190262 -0.911334 0.381142 -0.155567 -0.680666 -0.443012 0.583468 -0.400818 -0.904108 -0.148101 -0.492371 0.00466232 -0.870373 -0.343768 0.880741 -0.325759 0.942143 0.315079 0.114417 -0.243328 0.961208 -0.12989 0.196394 0.831244 -0.520061 -0.393103 -0.508579 -0.76604 -0.952506 0.253098 0.169333 0.437713 0.801722 -0.407 -0.869343 -0.438212 -0.2285 -0.783944 -0.150654 -0.602276 0.434154 -0.899896 -0.0412001 -0.134501 0.795292 -0.591118 -0.938946 -0.2423 -0.244277 -0.18733 -0.982261 0.00836931 -0.781253 0.606443 0.147884 -0.542567 -0.515643 0.663124 0.0513691 0.393866 -0.917731 0.426505 -0.116205 0.896989 -0.898663 0.323545 0.29618 -0.652981 -0.756381 0.0387703 0.53061 0.744616 0.40497 -0.974405 -0.0216447 0.223755 -0.72855 -0.139871 0.67056 -0.488708 -0.355792 -0.796603 0.415483 -0.620397 0.665193 0.845294 -0.368209 -0.387168 -0.52188 0.594461 -0.611765 0.82155 -0.468519 -0.324878 -0.447735 -0.536924 -0.715014 0.268464 0.844612 -0.463203 0.381533 -0.799545 -0.463854 -0.807511 0.540339 -0.236558 -0.864377 -0.441134 0.241357 0.532589 -0.828017 -0.175318 0.457305 -0.0140776 0.889198 -0.726566 -0.474842 0.496615 0.195998 0.883738 -0.424961 0.65734 -0.736068 0.16158 -0.850217 0.0155842 0.526202 0.93922 -0.269909 -0.212168 -0.346592 0.595252 -0.724948 0.203455 -0.587746 -0.783046 -0.585527 0.511399 0.62899 0.925887 -0.0649969 0.372167 -0.639363 -0.0162574 -0.768733 -0.0971704 -0.590937 -0.800844 0.944293 -0.310784 -0.108282 -0.128405 -0.653811 0.745683 0.442602 -0.778396 0.4452 -0.443109 0.473833 0.76101 -0.668191 -0.45083 0.591839 0.614928 0.607333 0.503 -0.0562653 -0.526299 0.848436 0.300287 0.938515 -0.170344 -0.211926 -0.892609 -0.397914 0.339415 0.0246759 -0.940313 0.965994 -0.132867 0.221817 0.305922 0.254914 -0.917295 -0.182086 0.374304 0.909253 -0.358093 0.623735 -0.694783 -0.758774 -0.637484 -0.133697 -0.377046 0.235382 0.895786 0.617072 -0.504417 -0.603975 0.195215 0.97933 -0.052948 -0.979338 0.190146 0.0688587 0.722262 0.650454 0.23505 0.157364 -0.869044 -0.469041 -0.710027 -0.21835 0.669466 0.13158 0.588006 -0.798083 0.320832 -0.934343 -0.155147 -0.296123 -0.530397 -0.794349 0.72498 0.411296 0.552485 0.467035 -0.858861 -0.210323 0.786651 0.148813 0.599195 -0.241571 0.954196 -0.176503 -0.778197 0.173495 -0.60358 0.195042 -0.514858 -0.834794 0.756372 0.482516 0.441679 -0.895457 -0.397738 0.199902 0.139452 0.385162 -0.912252 0.0557007 -0.871833 -0.486626 -0.0395314 0.694717 0.718197 0.995196 0.0861872 0.0464386 -0.0176173 0.810428 -0.585574 0.488689 -0.249509 0.836019 0.367485 0.901008 0.230518 -0.973098 0.072779 0.218593 0.981501 0.183543 -0.0544844 0.543894 -0.517711 -0.66042 0.86041 -0.155612 -0.485262 0.155142 -0.973243 0.169498 -0.00148848 -0.182945 -0.983122 0.431183 -0.539459 -0.723232 0.767807 0.291328 0.570614 0.450972 -0.774346 -0.443862 -0.178812 0.112741 0.977403 0.81632 0.570147 0.0924904 0.0530859 -0.874935 -0.481322 0.0348948 0.968434 0.246817 -0.847677 0.519763 0.106252 -0.942236 -0.0849982 -0.323984 -0.20422 0.0687636 0.976507 0.214789 -0.81126 0.543804 -0.600219 -0.417386 0.682295 0.0915502 0.278123 0.956173 -0.358404 0.930623 -0.0740765 -0.459239 -0.794846 0.396635 -0.185012 0.783515 0.593191 0.556856 0.425385 0.713414 -0.957923 -0.249553 0.141797 -0.395167 0.836934 -0.378663 0.5743 0.0570343 -0.816656 0.828897 -0.082239 0.553324 -0.623241 -0.771866 -0.125669 0.291915 0.294373 -0.910016 0.63053 0.668432 -0.3945 0.838723 -0.518545 0.166295 -0.674002 0.425188 0.6041 0.544528 -0.407812 -0.732925 -0.719274 0.660126 -0.216515 0.872916 -0.478816 -0.0935559 0.00322411 0.0861962 -0.996273 -0.554761 -0.784579 0.276903 0.976857 -0.201629 -0.0713922 0.0182621 -0.210079 -0.977514 0.4192 -0.878732 0.228256 -0.448731 0.498973 -0.741395 0.602766 0.601785 0.523953 0.429126 -0.204816 0.879717 -0.643404 -0.765517 0.00375307 -0.825342 0.270413 -0.495668 -0.818067 -0.357079 0.450845 -0.547565 -0.0299488 -0.836227 0.934507 0.355777 -0.0109037 0.413265 -0.244837 0.877078 -0.0987166 -0.75826 0.644435 0.908346 0.359586 -0.213555 0.446759 0.426874 -0.786247 0.160562 -0.925 0.344376 0.0612281 -0.067319 -0.995851 -0.973171 -0.159884 -0.165454 0.346896 -0.391262 0.852395 0.958696 -0.238088 0.155613 -0.00506995 -0.654362 -0.756164 -0.0483798 0.86916 0.492159 0.493548 0.175787 0.851768 0.569489 0.5851 0.577356 -0.917652 -0.286391 0.275491 0.224738 -0.35364 0.907982 0.539359 0.841671 0.0261023 -0.219085 0.964538 -0.147205 -0.795811 -0.21099 0.567598 0.693233 -0.452834 0.560686 0.60781 0.54334 0.579093 0.51716 0.826388 -0.222772 0.52664 -0.747722 -0.404429 0.537984 -0.349126 0.767257 -0.855209 -0.408539 -0.318926 -0.148847 -0.748549 0.646158 0.92509 -0.271849 0.265153 0.791457 0.606127 -0.0787797 -0.168049 0.031874 0.985263 -0.687511 0.719344 0.0993628 -0.824391 -0.0318455 -0.565124 -0.793661 -0.141421 0.591695 -0.424943 -0.787947 -0.445604 -0.473458 -0.720214 -0.50708 0.478357 -0.847974 -0.228286 -0.817094 0.401778 0.41344 0.951815 -0.127761 0.278794 0.0195326 0.925859 0.377363 -0.847324 -0.506478 -0.159757 -0.798562 0.594715 -0.092812 -0.818094 -0.331145 -0.470175 -0.389632 -0.903488 0.178596 0.830539 -0.432488 -0.350941 0.589203 -0.797599 0.129135 0.0453175 -0.437651 -0.898002 -0.0788385 -0.939 0.33476 0.13499 -0.165487 -0.97693 -0.995504 0.00287872 -0.0946796 0.331658 -0.846714 0.416026 -0.279084 0.20376 0.9384 0.855287 0.486034 0.179597 -0.0739609 0.648622 -0.757508 -0.467962 -0.52566 -0.710418 0.501745 0.802971 -0.321699 0.45075 0.876478 0.169146 0.194092 -0.704081 0.68308 -0.33672 0.933564 -0.122793 -0.157532 0.222751 -0.962063 0.278414 -0.955484 0.0976544 -0.640696 -0.620108 0.452742 0.762567 0.26056 -0.592115 -0.494548 0.353622 0.793961 -0.618688 0.0354053 0.784839 0.656238 -0.327342 0.679852 0.385867 0.330574 0.861294 -0.602019 -0.654459 -0.457446 0.822267 -0.305447 -0.480186 0.231571 0.332878 0.914094 -0.0791338 -0.561725 -0.82353 0.410173 -0.782296 -0.468798 -0.497541 -0.708845 0.499992 0.412221 -0.642543 0.64592 -0.576497 0.700885 -0.420015 -0.636679 -0.259097 0.726298 0.282319 -0.893497 0.349227 0.670692 0.687886 0.277463 -0.234433 0.374023 0.897301 0.572104 -0.280408 0.770758 0.677749 -0.263186 0.686578 -0.574025 0.17702 0.799474 0.974525 0.0299284 -0.222272 0.296776 0.293115 -0.90885 0.225179 0.973962 0.0263309 -0.388948 0.128894 0.912199 -0.728856 0.457688 -0.509206 -0.0976896 0.978231 -0.183085 -0.803183 -0.551526 -0.225204 -0.816663 0.346432 0.46157 -0.299602 -0.882786 0.36184 0.0375056 -0.473025 0.88025 -0.0240831 0.524647 0.850979 -0.743007 -0.204146 -0.637389 -0.0615887 0.997672 -0.0292703 0.221463 -0.0558633 0.973567 0.224165 0.451981 -0.863402 0.481333 0.85812 -0.178741 -0.681465 0.669792 -0.294929 -0.404408 0.627867 0.665009 0.277057 -0.0419241 0.959939 0.088118 0.962279 0.2574 0.159793 -0.98664 -0.0317443 -0.959724 0.28054 0.0150843 0.617998 0.769625 -0.160482 0.984696 0.125583 0.12084 -0.550595 -0.685118 -0.476927 -0.931936 0.0290353 0.361458 0.61246 -0.384288 -0.690808 -0.826727 -0.404828 0.390689 0.89333 0.281594 -0.350237 0.806938 -0.234576 0.542056 -0.166676 -0.495662 0.852372 0.82433 0.0449446 -0.564322 0.763241 0.552744 0.33457 -0.0688285 -0.774812 -0.628434 -0.698551 -0.204839 -0.685615 0.174389 0.983686 -0.0441652 0.753145 -0.102021 0.649895 0.55938 -0.7525 0.347619 0.87659 0.340313 -0.340262 -0.425546 0.899403 0.0999245 0.166033 -0.591819 -0.788786 -0.489874 0.00622269 -0.871771 -0.669381 -0.572913 -0.472969 0.735194 0.410268 -0.539602 0.0618032 -0.915766 -0.396929 -0.112413 0.371082 -0.921771 0.159139 -0.581764 0.797638 -0.918304 -0.350232 -0.184541 0.696974 0.380665 0.607718 0.763383 0.461723 -0.451728 -0.398798 0.00677397 -0.917014 0.203326 0.851492 -0.483342 0.921585 0.168689 -0.349607 0.718258 -0.682803 0.133735 0.804 0.290986 0.518566 -0.482032 -0.597331 0.640969 -0.72458 0.497818 -0.476614 0.314137 0.397857 -0.86199 0.983256 0.00592907 -0.182135 -0.542659 -0.836766 -0.073099 -0.176423 -0.921612 -0.345696 -0.0449527 0.522365 -0.851536 -0.363103 -0.843775 0.395221 -0.967711 -0.251387 -0.0184571 -0.80385 0.511843 -0.303054 -0.241533 -0.502577 -0.830107 -0.0852897 -0.770711 0.631451 -0.525811 -0.014617 0.850476 0.34364 -0.920113 0.187895 0.686255 -0.00858656 -0.72731 0.0547199 -0.777371 -0.626657 -0.631536 -0.768786 0.100652 -0.53038 0.84711 -0.0332074 -0.630242 -0.242696 0.737491 0.115706 0.989946 0.0813538 0.667525 0.300342 0.681326 0.267182 -0.613963 0.74274 -0.400343 -0.914305 0.0614144 0.14647 -0.973206 -0.177248 0.940093 0.223969 -0.257029 0.951136 -0.270751 0.148439 0.349755 0.913899 0.206057 0.030428 -0.062515 0.99758 0.831018 0.131436 -0.540493 0.535529 -0.289421 0.793375 0.2177 0.240727 -0.945863 -0.618461 0.232071 0.750765 0.56277 0.653422 0.50629 -0.187841 -0.40883 0.89307 -0.937438 0.337481 0.085533 0.977226 0.0193392 -0.211318 0.0503984 0.683839 0.72789 0.0388912 0.972541 -0.22946 -0.325308 -0.937336 -0.124802 -0.0115072 0.288703 -0.95735 -0.0753717 0.0282009 0.996757 -0.141362 -0.355558 -0.923902 -0.932484 -0.357246 -0.0533711 -0.0675838 0.000713607 -0.997713 -0.460682 0.882952 -0.09038 -0.0458008 0.621766 0.781863 0.934175 -0.313823 -0.1698 0.315464 -0.266729 0.91068 -0.25658 0.593751 -0.762644 -0.884576 -0.427589 -0.18626 0.881607 0.0818019 -0.464842 0.144418 0.076903 0.986524 -0.145135 0.893028 0.425954 0.254248 -0.0918789 0.962765 0.197825 -0.671581 0.714033 0.613743 -0.0479221 -0.78805 -0.328712 0.651704 -0.683543 -0.772125 -0.54833 -0.32118 0.978979 0.123103 0.162623 0.156272 -0.219476 -0.963021 -0.206604 -0.202201 0.957303 0.326396 -0.0564328 0.943547 0.377953 -0.251712 -0.89095 0.231646 -0.968753 -0.0886408 0.842837 0.210952 -0.495102 0.518921 0.721268 0.458795 0.74876 -0.20393 -0.630691 0.833443 0.552309 0.0181011 0.0846835 0.756239 0.648792 0.733363 -0.525589 -0.431201 -0.929649 -0.280188 0.239265 0.108055 -0.983239 0.146847 -0.173036 0.157478 -0.972244 -0.961716 0.269719 -0.0485138 -0.774747 -0.596371 -0.210019 0.324953 0.436188 0.839134 0.0546672 -0.973918 0.220216 0.844091 0.396999 0.360421 -0.272648 0.94476 -0.181911 0.81567 0.361544 0.451628 0.461169 -0.688414 -0.559831 0.736588 0.658796 0.153056 0.518155 -0.270034 0.81154 0.576054 -0.153825 0.802808 -0.458644 -0.888249 0.0256718 0.0865456 -0.0963961 -0.991573 -0.767427 0.417845 0.486273 0.00572554 -0.458126 0.888869 0.170208 -0.753049 0.635568 -0.676496 0.729703 0.0994297 0.148946 0.228227 0.962147 -0.620016 -0.686755 0.379404 -0.62139 0.427944 -0.656306 -0.854396 0.274008 0.441505 0.905311 0.364463 -0.218125 -0.806606 0.586169 -0.0761089 -0.426942 0.654639 -0.623834 0.733846 0.591364 0.334304 -0.627074 -0.0905232 -0.773682 0.611127 0.656242 -0.442573 0.0914723 0.920637 -0.379553 -0.0251909 -0.652599 -0.757284 -0.719621 -0.415199 0.556557 -0.135419 -0.862647 -0.487342 0.613967 -0.253737 -0.747437 0.129349 -0.614107 0.77855 0.749387 0.608909 -0.260095 0.929872 0.255022 -0.265144 0.412638 0.591429 0.692778 0.729447 -0.643248 0.232679 0.143581 0.290236 -0.946122 -0.394075 -0.536984 -0.745891 0.941144 -0.247354 0.230356 -0.87635 0.174427 0.448983 -0.789762 0.289994 -0.540536 0.0865877 0.115567 -0.989518 -0.139271 -0.966344 -0.216294 -0.779708 -0.620221 0.0859103 0.357233 0.0369805 0.933283 0.921899 -0.28383 0.263708 -0.632522 0.0954535 0.768638 0.32673 0.401316 -0.855683 -0.0271521 0.974222 -0.223951 -0.0672082 0.292046 -0.95404 -0.0400561 -0.682177 -0.730089 -0.932946 -0.339586 -0.119552 -0.868788 0.044335 -0.493195 -0.949194 -0.00303113 -0.314678 0.18792 0.297986 -0.93589 -0.531866 -0.424541 0.732724 0.600649 -0.794375 0.0904931 0.303972 0.952679 0.00172145 0.952069 -0.166031 0.256903 -0.376961 0.806354 0.455735 -0.296792 0.771872 0.562253 0.913755 0.313063 0.258926 -0.913885 0.252467 -0.317924 -0.487275 -0.298136 0.820779 0.307254 0.432853 -0.847487 -0.800411 -0.296804 -0.520816 0.860149 0.3486 -0.37232 -0.95088 0.287022 0.115959 -0.973152 -0.104053 -0.205302 -0.338204 0.566946 0.751126 0.573437 -0.649591 -0.499201 0.964953 -0.0971139 0.243792 0.939275 0.189272 -0.286249 0.212933 -0.975298 -0.0587693 0.0780973 -0.331901 -0.940076 0.175525 -0.172706 -0.969208 -0.0425956 0.0680459 0.996772 -0.952108 0.300748 0.0551412 0.224407 0.781676 0.581914 0.365227 0.800422 -0.475326 0.915975 0.168711 0.364042 -0.455391 0.790546 0.409458 0.452505 -0.207429 -0.867302 0.147537 0.405494 -0.902113 -0.448654 0.620035 0.643635 -0.540449 0.738383 -0.403367 0.998999 0.0441186 -0.00737953 -0.233194 -0.517224 -0.823468 0.875426 -0.0567252 -0.480012 0.712803 -0.618137 0.331388 -0.56877 0.798188 -0.198484 -0.24705 -0.794399 -0.554884 0.221194 -0.888808 0.401366 -0.162622 -0.561412 0.8114 -0.138191 -0.936985 -0.320877 0.190257 -0.747237 0.636741 -0.970152 -0.187195 -0.154155 0.755993 0.254714 -0.602989 -0.170394 0.654726 0.73641 0.300677 -0.165145 -0.939319 0.183286 -0.979711 0.0810677 -0.8532 0.32617 -0.407018 0.308713 0.894756 -0.322658 0.961308 0.265565 -0.0732287 -0.67529 -0.410742 -0.612596 -0.898774 -0.0950667 -0.427981 0.0917711 -0.115689 -0.989037 -0.957234 0.0908476 -0.274682 -0.971847 -0.213594 -0.0994506 -0.921226 -0.343729 0.182191 -0.406074 0.881196 0.242069 0.585523 0.667304 -0.460291 0.680998 0.0322113 -0.731576 0.683793 -0.625207 0.376222 0.250465 -0.920429 -0.30013 -0.774203 -0.096448 0.625546 -0.562522 0.810532 0.163114 0.337795 -0.537883 0.772384 -0.25229 0.735826 0.628418 -0.91784 0.241286 -0.315201 0.908854 -0.223396 0.352248 -0.514132 0.0894767 0.853031 -0.912219 0.307829 -0.270366 -0.565747 0.0260264 0.824168 0.245598 0.113532 0.9627 -0.495273 -0.858946 -0.130064 0.700817 -0.691365 -0.1757 -0.494254 0.296277 0.817272 -0.422493 -0.752607 -0.505056 0.110008 -0.985596 -0.128451 -0.353122 0.280341 -0.892588 0.988524 0.0494924 0.142727 0.576855 -0.23509 0.782286 -0.219623 0.804444 0.551938 -0.210867 -0.744614 -0.633313 0.306812 -0.948773 -0.0754732 -0.48855 -0.564942 0.664951 0.592374 0.799387 0.100369 0.00916194 -0.54413 -0.838951 0.311633 0.311163 0.89781 -0.563903 0.798623 -0.210273 0.889909 0.424904 0.165885 0.399987 -0.812152 0.424758 -0.942425 -0.332573 -0.0350676 -0.245508 0.83098 -0.499197 -0.612135 0.218952 0.759836 0.578166 0.713333 0.396082 0.768 -0.613129 -0.185067 0.410322 0.0460043 0.910779 -0.322078 -0.0720757 -0.943965 0.194472 -0.832955 0.518041 -0.37475 0.577071 0.725639 -0.932614 0.203268 0.298182 0.154037 0.504024 0.849842 -0.137976 -0.662589 0.736165 -0.94354 -0.23628 -0.23217 0.879571 -0.204425 0.429611 0.576714 -0.488979 0.654446 -0.352037 -0.87933 0.320701 -0.244069 0.787812 -0.565494 0.269733 -0.799782 0.536277 -0.756432 -0.372671 -0.537519 0.877598 0.462047 0.127808 -0.794933 0.248169 0.553619 0.218271 -0.970225 0.10498 0.19532 0.254007 -0.947275 -0.640781 0.743982 -0.189446 0.25398 -0.414638 0.873825 -0.300366 0.894869 0.330136 0.489222 -0.648895 -0.582749 0.535662 -0.301866 0.788634 -0.871812 -0.417653 0.255948 0.430858 -0.540848 0.722388 0.752211 -0.587521 -0.298326 0.721429 0.640194 -0.26399 0.637401 -0.572589 0.515619 0.682634 0.431107 -0.590048 -0.922082 -0.364909 0.128864 -0.535582 0.509155 -0.673731 0.281416 0.119028 0.952175 0.107408 -0.797922 0.593114 -0.174008 -0.91695 -0.359061 -0.486618 -0.543985 -0.683581 0.147402 0.961047 -0.233797 -0.315608 0.0394332 -0.94807 0.330938 -0.671276 0.663226 0.908188 -0.166544 0.384002 0.804826 -0.214349 -0.553452 -0.754511 0.650268 0.0886815 0.246763 0.0992116 0.963984 0.934305 -0.193497 0.299388 -0.288861 0.755527 -0.587995 -0.907044 -0.402328 0.124108 0.798681 0.352119 0.487976 -0.490351 0.0336324 -0.870876 0.463665 -0.305292 -0.831752 0.163227 -0.425224 0.890248 0.146003 -0.548761 0.823131 -0.631318 -0.774715 0.035411 0.382526 0.851404 0.358866 0.486421 0.706398 -0.514195 -0.0962652 0.398581 0.912067 -0.787768 0.528727 0.316019 0.328794 -0.832934 -0.445101 -0.722726 -0.104199 -0.683235 -0.777084 -0.577141 -0.251096 0.253139 0.756581 0.602914 -0.970899 0.237973 0.0269197 -0.679537 -0.242311 0.69247 0.151076 0.605245 -0.781572 -0.82963 0.492542 -0.262902 -0.656539 -0.697897 0.286178 0.550889 0.673446 0.492942 0.783488 0.511806 0.352422 -0.534872 0.804867 -0.257102 -0.125777 0.991232 0.0404817 -0.490828 0.472041 -0.732301 0.328829 0.940914 0.0809536 -0.619806 0.781938 0.0664372 0.947686 0.0482443 -0.315536 -0.719301 -0.429171 -0.546276 -0.314779 0.729277 0.607511 0.416966 0.62998 0.655183 -0.563304 0.701323 -0.436847 -0.213896 -0.323106 -0.921874 0.0147758 -0.970689 -0.239884 -0.146771 0.785118 -0.601704 -0.779443 0.24955 -0.574624 -0.589971 -0.790826 0.162872 0.48584 0.338778 -0.805723 -0.881148 0.228662 0.413874 -0.232766 -0.35156 0.906766 0.648381 -0.580222 0.492894 0.778105 -0.350504 0.521248 -0.0166132 0.933964 0.356981 -0.815215 0.0146268 -0.578974 0.629715 0.