# vtk DataFile Version 4.0
Generated by libgran
ASCII
DATASET POLYDATA
POINTS 60 FLOAT
-6.24238 -3.99784 7.32887 -0.628444 -4.20994 7.82294 -3.78867 -4.52347 8.34637 -3.09426 -3.57062 4.73131 -1.72834 -3.54232 0.9247 -2.86941 -1.86759 0.104465 -2.29258 -4.88045 3.50395 -3.04629 -1.34855 1.10835 -8.01373 -3.84876 6.75512 8.01914 -3.21433 5.86263 7.22651 -4.10721 6.48884 8.04762 -0.673413 6.21967 7.51468 0.297039 6.12787 8.35275 1.9245 5.80504 9.69886 2.6554 5.50288 8.32756 2.68101 5.15159 7.374 3.30948 3.76337 -0.996772 -1.27051 9.13477 -0.695469 -0.753073 7.65982 -1.90076 -2.79021 9.48228 0.213173 -1.61827 6.85661 0.950923 -3.05133 5.50758 1.39019 -1.71421 5.36226 11.8385 -6.77873 9.07681 13.6612 -5.01763 9.80636 11.8326 -3.79776 8.95939 9.76273 -2.36687 8.60405 10.0939 -2.04114 9.48964 7.83975 -5.40857 7.70907 7.88483 -6.7078 7.36336 14.3763 -8.22903 8.67886 14.0857 -6.47686 8.9838 14 -9.03461 6.32589 -2.23168 6.55054 -10.605 -1.24245 4.89961 -12.6784 -2.41568 4.79907 -13.8842 -0.895429 5.65432 -14.1742 -4.39211 5.68462 -14.4536 -1.03547 8.32934 -14.4548 -2.85411 7.15093 -14.8426 -6.68491 3.40296 -13.2456 -5.26405 4.02536 -14.4376 -4.83592 3.31172 -8.85687 -3.84241 5.11877 -9.26749 -5.68928 3.7952 -7.36947 -8.36986 3.35645 -5.26072 -7.5242 4.44262 -3.91516 -8.29353 5.0329 -7.24548 -7.85424 1.99867 -5.89852 -7.13913 6.60551 -7.03416 -6.44988 6.41393 -5.62853 -5.96394 6.99462 -4.97538 -2.89402 0.0223967 -6.682 -0.738799 0.0410923 -3.91456 -1.25759 -0.209124 -2.20699 -6.62532 2.86356 -0.126171 -8.62757 3.54778 -1.69803 -7.26413 4.2604 -2.63646 -8.02947 3.2593 0.169329 -9.3531 1.95147 0.869534 

POINT_DATA 60
FIELD FieldData 1
normals 3 60 double
-0.837891 0.424163 -0.343546 0.76613 0.255197 0.589846 -0.408237 -0.159948 0.898754 0.350395 -0.203865 0.914146 -0.689562 -0.722764 -0.0460035 0.370794 0.892915 0.255372 0.549941 0.339713 -0.762994 0.547675 0.373872 -0.748513 -0.933454 -0.275081 -0.230205 0.902726 0.370197 0.219178 0.110096 -0.522678 0.845391 -0.882014 0.192227 0.430233 0.349077 0.778226 -0.522025 0.488997 0.849237 0.199195 -0.857108 0.118344 0.501358 -0.51419 -0.0927265 -0.852649 -0.439371 0.721195 -0.535567 -0.209068 -0.823485 0.527412 0.0922352 -0.306046 -0.947538 -0.69492 -0.696218 -0.179905 -0.816407 0.559153 -0.14432 0.847437 0.437539 -0.300682 -0.408173 0.899586 0.155368 -0.189377 -0.615225 -0.765267 0.674328 -0.548087 -0.494856 0.499499 0.840745 0.208923 -0.569336 0.592694 -0.569711 -0.238156 0.918424 0.315879 0.503149 -0.778679 0.374834 -0.458075 -0.520558 -0.720546 -0.540502 0.841035 -0.0227631 0.249866 0.91114 0.327705 -0.381983 0.288976 0.877828 -0.817984 0.555692 -0.148688 -0.319787 0.316411 -0.893096 -0.853446 -0.416948 -0.312706 0.666806 0.438298 -0.602715 0.3446 0.122684 -0.930699 -0.944083 0.296627 -0.143941 -0.136356 -0.0823156 0.987234 0.186914 0.0853821 0.978659 0.268653 -0.445691 0.853923 0.807564 -0.379537 0.451433 0.0689888 0.193421 -0.978687 -0.0712723 0.98255 -0.171799 -0.181706 -0.648266 -0.739414 0.663952 0.437899 0.606145 -0.593909 0.191109 0.781505 -0.697324 0.709516 -0.101613 0.894431 -0.125907 0.429116 -0.205178 -0.0656712 0.976519 -0.69112 -0.646361 0.323373 0.588648 -0.596036 0.546108 -0.0692541 -0.122973 -0.989991 -0.588048 -0.37319 0.717586 -0.922892 -0.339167 -0.182308 0.95956 0.0924944 -0.265875 0.40388 0.62012 -0.672556 -0.481258 0.734909 0.477808 0.346084 -0.685333 -0.640737 