# vtk DataFile Version 4.0
Generated by libgran
ASCII
DATASET POLYDATA
POINTS 60 FLOAT
-6.25292 -4.18663 7.81114 -0.616999 -4.21951 8.01475 -3.73556 -4.57781 8.72882 -3.25868 -3.85794 5.02599 -2.09426 -4.0509 1.15769 -3.32774 -2.46756 0.290954 -2.48188 -5.2257 3.84677 -3.46807 -1.88657 1.26627 -8.05534 -4.12269 7.32506 7.87969 -3.08183 5.53019 7.15254 -3.95679 6.25361 7.83629 -0.523382 5.72269 7.26522 0.421373 5.59803 8.02157 2.05318 5.1286 9.32232 2.81161 4.71585 7.93696 2.7617 4.42805 6.89847 3.25748 3.04705 -1.01168 -1.19964 9.15233 -0.804762 -0.778715 7.63115 -1.84779 -2.717 9.64831 0.0861628 -1.67132 6.83813 0.801011 -3.16932 5.54676 1.1849 -1.83195 5.28979 11.9835 -6.30377 8.75521 13.7777 -4.44111 9.2723 11.8658 -3.33861 8.44873 9.73089 -2.00123 8.11458 10.0954 -1.60778 8.95859 7.87359 -5.15513 7.51954 7.94691 -6.47209 7.25533 14.5474 -7.6948 8.3148 14.2108 -5.93666 8.52273 14.0794 -8.66431 6.04148 -1.42753 6.05149 -10.0712 -0.655266 4.37166 -12.2124 -1.74639 4.58783 -13.4786 -0.0716911 5.13536 -13.6279 -3.46834 5.88892 -14.0759 0.338521 7.79596 -13.7118 -1.64908 7.03643 -14.2766 -6.2392 4.0443 -13.1583 -4.65065 4.44235 -14.2284 -4.72667 3.2996 -8.70344 -3.3712 4.89143 -8.92672 -5.55996 3.84874 -7.22748 -8.40245 3.82555 -5.29242 -7.44554 4.62978 -3.82854 -7.87025 5.57615 -7.13842 -8.1264 2.43551 -6.00503 -6.44321 6.86639 -6.75214 -5.89597 6.44961 -5.33284 -5.34709 6.87701 -4.6145 -3.61595 -0.446965 -6.69091 -1.49627 -0.742513 -3.95797 -1.89056 -0.926416 -2.20918 -7.1079 2.61631 -0.16264 -8.83682 3.84968 -1.72391 -7.30823 4.31696 -2.55606 -8.40479 3.28707 0.126716 -10.0127 2.2516 0.669921 

POINT_DATA 60
FIELD FieldData 1
normals 3 60 double
-0.866544 0.377852 -0.326081 0.788198 0.314884 0.528765 -0.356316 -0.107611 0.928148 0.40363 -0.131661 0.905399 -0.668362 -0.742793 0.0393727 0.35579 0.918008 0.175142 0.498725 0.302013 -0.812442 0.496123 0.337023 -0.800173 -0.935875 -0.313907 -0.16 0.899099 0.412535 0.146411 0.171948 -0.462425 0.869826 -0.864968 0.191559 0.463827 0.293897 0.753196 -0.58849 0.462459 0.87861 0.119067 -0.838283 0.120185 0.531824 -0.547069 -0.170086 -0.819625 -0.49142 0.665864 -0.561366 -0.157047 -0.789724 0.593019 0.0498749 -0.368804 -0.928168 -0.679062 -0.727638 -0.0970465 -0.84105 0.523801 -0.135156 0.814804 0.442649 -0.374375 -0.43091 0.894725 0.117408 -0.206554 -0.669752 -0.71328 0.666996 -0.557369 -0.494425 0.479428 0.868216 0.127869 -0.618586 0.535555 -0.574919 -0.254037 0.929009 0.269088 0.549101 -0.735924 0.396111 -0.475785 -0.581035 -0.660323 -0.570474 0.819957 -0.0472282 0.233898 0.938184 0.255151 -0.346312 0.333396 0.876878 -0.680729 0.717787 -0.146253 -0.193603 0.431223 -0.881229 -0.897523 -0.215062 -0.38497 0.777179 0.332478 -0.534277 0.420322 0.110175 -0.900661 -0.85565 0.489757 -0.167338 -0.212215 -0.116401 0.970266 0.137729 -0.0172296 0.99032 0.120481 -0.544725 0.829915 0.68622 -0.562995 0.460585 0.167768 0.238038 -0.956657 0.135625 0.985677 -0.100229 -0.259191 -0.54931 -0.794404 0.69772 0.254925 0.669478 -0.592634 0.256422 0.763565 -0.535243 0.840728 -0.0817929 0.8228 -0.331228 0.461831 -0.275564 -0.0855533 0.957468 -0.824442 -0.512944 0.23913 0.423238 -0.736468 0.527716 -0.143763 -0.15564 -0.977297 -0.538055 -0.339543 0.771497 -0.964872 -0.111354 -0.237956 0.968194 -0.100458 -0.229146 0.560404 0.567744 -0.603004 -0.332016 0.782117 0.527312 0.218718 -0.690993 -0.688978 