# vtk DataFile Version 4.0
Generated by libgran
ASCII
DATASET POLYDATA
POINTS 60 FLOAT
-6.18105 -4.13656 8.14055 -0.542732 -3.83943 8.26638 -3.6395 -4.29449 9.06195 -3.2317 -3.87515 5.30303 -2.10194 -4.25322 1.43251 -3.45318 -2.81561 0.487085 -2.37881 -5.2776 4.19588 -3.62138 -2.18428 1.42603 -7.98685 -4.22342 7.67084 7.85514 -2.6446 5.60214 7.11269 -3.53147 6.29485 7.8578 -0.0513558 5.40772 7.23542 0.76621 4.98528 7.84085 2.03042 3.76444 9.03295 2.51764 2.88183 7.62452 2.37648 2.85154 6.37788 2.25932 1.56175 -1.11727 -0.73722 9.17115 -0.951466 -0.437911 7.61651 -1.86046 -2.2525 9.80287 -0.0200862 -1.34017 6.88315 0.775912 -2.88661 5.68905 1.0589 -1.55133 5.31633 11.8309 -6.35484 8.57092 13.7073 -4.65883 9.3207 11.8653 -3.37163 8.61176 9.80387 -1.89517 8.42615 10.1732 -1.63215 9.31747 7.80644 -4.81832 7.48703 7.79874 -6.12661 7.17419 14.3318 -7.81427 7.99827 14.0781 -6.07736 8.40615 13.8504 -8.48929 5.62303 -1.10942 6.1467 -9.53184 -0.200603 4.59262 -11.7146 -1.19758 4.90055 -13.0382 0.488109 5.43456 -13.0353 -2.86169 6.25819 -13.6723 0.927318 8.09017 -12.9259 -1.02222 7.39241 -13.6734 -5.70638 4.39527 -13.0674 -4.04266 4.83929 -13.9973 -4.5189 3.35792 -8.57253 -3.13816 4.94299 -8.60045 -5.45045 3.82585 -7.12731 -8.42286 3.71971 -5.40164 -7.56576 4.41934 -3.82643 -7.74652 5.57412 -7.09337 -8.10847 2.37317 -6.17896 -6.33959 6.81973 -6.52798 -5.89805 6.30928 -5.10247 -5.39803 6.68454 -4.32202 -3.74516 -0.715653 -6.62446 -1.81516 -1.24806 -3.89792 -2.15313 -1.36093 -2.1314 -7.50519 2.16568 -0.290446 -9.10929 3.53697 -1.86982 -7.52265 4.02787 -2.56912 -8.80711 2.84178 -0.0385501 -10.4633 1.80509 0.329109 

POINT_DATA 60
FIELD FieldData 1
normals 3 60 double
-0.88963 0.295165 -0.348477 0.781766 0.394456 0.482956 -0.344309 -0.0467242 0.937693 0.421211 -0.0311419 0.906428 -0.615651 -0.782084 0.0965375 0.293095 0.949645 0.110766 0.468115 0.282558 -0.837275 0.4613 0.318319 -0.828175 -0.916169 -0.382018 -0.121231 0.913408 0.378005 0.150988 0.170963 -0.508866 0.843698 -0.794223 0.390675 0.465384 0.171846 0.42689 -0.887825 0.433581 0.837324 -0.333011 -0.758523 0.350107 0.549606 -0.649906 -0.491269 -0.579894 -0.596738 0.37411 -0.709891 -0.10844 -0.743089 0.660349 0.0573681 -0.44378 -0.894298 -0.634747 -0.772189 -0.0286347 -0.874012 0.458478 -0.160937 0.774208 0.466017 -0.428288 -0.491216 0.869263 0.0555716 -0.227122 -0.572121 -0.788095 0.646243 -0.529022 -0.550005 0.518808 0.821609 0.236215 -0.58017 0.636365 -0.508372 -0.210836 0.899386 0.382954 0.522791 -0.777979 0.348478 -0.530499 -0.530318 -0.661312 -0.529193 0.847395 0.0433245 0.27546 0.889508 0.36455 -0.342841 0.24697 0.906348 -0.662652 0.734131 -0.148138 -0.127113 0.487219 -0.863979 -0.869859 -0.179292 -0.459564 0.815825 0.354726 -0.456726 0.483957 0.160023 -0.860336 -0.837501 0.510124 -0.195874 -0.280693 -0.172811 0.944112 0.0675957 -0.0803075 0.994476 0.0567632 -0.596406 0.800674 0.646802 -0.599009 0.472054 0.236993 0.294208 -0.925892 0.150735 0.988153 -0.0288448 -0.206599 -0.495558 -0.843646 0.650506 0.204077 0.73157 -0.643127 0.216495 0.734519 -0.520993 0.850979 -0.0663316 0.785124 -0.369534 0.497015 -0.343582 -0.140913 0.928491 -0.843598 -0.516166 0.148037 0.229386 -0.846373 0.480661 -0.169039 -0.202885 -0.964502 -0.507015 -0.315757 0.802018 -0.949118 -0.0752315 -0.305803 0.979247 -0.104639 -0.173566 0.607394 0.595545 -0.525736 -0.352805 0.751333 0.557699 0.251695 -0.647211 -0.719561 