# vtk DataFile Version 4.0
Generated by libgran
ASCII
DATASET POLYDATA
POINTS 60 FLOAT
-6.33066 -3.86204 6.67333 -0.756139 -4.23781 7.44012 -3.94442 -4.5371 7.76072 -3.03879 -3.24197 4.30211 -1.46635 -2.8628 0.595301 -2.44122 -1.09255 -0.10795 -2.19174 -4.43941 2.99314 -2.67405 -0.661605 0.925758 -8.06553 -3.62 6.0247 8.00068 -3.25372 6.04613 7.15929 -4.18495 6.53858 8.05529 -0.761311 6.65405 7.5456 0.225554 6.63102 8.43038 1.85618 6.51501 9.8042 2.58054 6.35559 8.454 2.67391 5.93994 7.58689 3.4593 4.57514 -1.14718 -1.44039 9.01683 -0.757001 -0.783799 7.62018 -2.09311 -2.9674 9.16141 0.180895 -1.58386 6.78375 0.966539 -2.8918 5.33899 1.43681 -1.5574 5.35262 11.5751 -7.20309 9.08744 13.3867 -5.56457 10.082 11.629 -4.2256 9.26535 9.60752 -2.71919 8.94544 9.89584 -2.48943 9.87503 7.68183 -5.61331 7.6545 7.72234 -6.87319 7.18479 14.1044 -8.66598 8.68136 13.829 -6.94578 9.14252 13.8422 -9.22857 6.24379 -3.11425 6.83981 -11.0186 -1.85232 5.27495 -13.009 -3.02209 4.77647 -14.1152 -1.77365 5.93743 -14.5845 -5.18045 5.10161 -14.6157 -2.57844 8.45925 -15.0811 -4.06941 6.84705 -15.2366 -6.78295 2.46987 -13.0574 -5.61736 3.292 -14.3963 -4.75772 3.26309 -8.81984 -4.25839 5.20511 -9.45264 -5.63049 3.67438 -7.32203 -8.01651 2.81983 -4.99785 -7.39846 4.20575 -3.81351 -8.44946 4.2587 -7.11873 -7.21553 1.56817 -5.55283 -7.70671 6.0749 -7.12503 -6.92432 6.1954 -5.76087 -6.56441 6.93783 -5.19589 -1.96954 0.752013 -6.51825 0.176208 1.02109 -3.71407 -0.518124 0.656157 -2.09163 -5.94673 3.28259 0.0232912 -8.12378 3.27665 -1.46277 -7.03339 4.2156 -2.5476 -7.39137 3.33598 0.377898 -8.29937 1.81087 1.27359 

POINT_DATA 60
FIELD FieldData 1
normals 3 60 double
-0.811389 0.473513 -0.342687 0.736306 0.179104 0.652514 -0.459111 -0.240815 0.855117 0.296616 -0.301383 0.906194 -0.697237 -0.699886 -0.154988 0.404604 0.833336 0.376626 0.596116 0.402482 -0.694733 0.637436 0.40239 -0.657082 -0.923482 -0.231473 -0.305942 0.895964 0.325939 0.301683 0.054571 -0.605287 0.794134 -0.900515 0.169569 0.400398 0.390817 0.817296 -0.423425 0.493962 0.813326 0.307412 -0.879863 0.0889656 0.466825 -0.470335 0.00440825 -0.882477 -0.396773 0.780985 -0.482321 -0.249913 -0.867872 0.429351 0.140269 -0.211284 -0.967307 -0.696014 -0.659143 -0.284772 -0.797628 0.588779 -0.130881 0.870265 0.445581 -0.209991 -0.399989 0.888821 0.22362 -0.158481 -0.53285 -0.831237 0.690305 -0.512541 -0.510667 0.502392 0.804459 0.316935 -0.526794 0.658631 -0.537302 -0.238476 0.888392 0.392286 0.467978 -0.823074 0.321785 -0.427473 -0.436805 -0.791498 -0.523298 0.851538 0.0322874 0.247971 0.868668 0.428865 -0.423912 0.210496 0.880903 -0.935427 0.325956 -0.136852 -0.430418 0.139767 -0.891743 -0.739354 -0.638249 -0.214462 0.509087 0.522705 -0.68382 0.258544 0.10799 -0.959944 -0.993811 0.0460702 -0.101082 -0.0640984 -0.0135475 0.997852 0.207442 0.225026 0.952014 0.410706 -0.280785 0.867457 0.896831 -0.128076 0.423428 -0.027994 0.10551 -0.994024 -0.318105 0.914671 -0.24937 -0.053011 -0.74349 -0.666642 0.565044 0.642435 0.51769 -0.584064 0.120569 0.802703 -0.853989 0.508169 -0.111656 0.917712 0.135377 0.373468 -0.13532 -0.0148808 0.99069 -0.495231 -0.75731 0.425709 0.739168 -0.388083 0.550475 0.0196522 -0.0307319 -0.999334 -0.67468 -0.395664 0.623103 -0.810441 -0.578782 -0.0905421 0.890415 0.306366 -0.336604 0.199976 0.632586 -0.748228 -0.634195 0.632171 0.445149 0.483895 -0.634945 -0.602238 