# vtk DataFile Version 4.0
Generated by libgran
ASCII
DATASET POLYDATA
POINTS 60 FLOAT
-6.40525 -3.6993 5.65609 -0.904825 -4.26485 6.75618 -4.10905 -4.5754 6.79026 -2.94501 -2.78279 3.64204 -1.08502 -1.86999 0.169153 -2.00432 0.00171242 -0.332167 -2.00121 -3.78061 2.23554 -2.31745 0.271703 0.734382 -8.08703 -3.32811 4.93295 7.93984 -3.23815 6.14234 7.05946 -4.2203 6.4215 7.96502 -0.873343 7.13811 7.46391 0.113405 7.23526 8.36706 1.72519 7.43941 9.75407 2.44028 7.48811 8.43583 2.62332 7.00514 7.66908 3.63135 5.72945 -1.40131 -1.74087 8.68698 -0.906074 -0.885735 7.43899 -2.35667 -3.26114 8.5336 0.0953861 -1.56188 6.56763 0.976125 -2.65615 5.00993 1.45344 -1.34677 5.2542 11.2609 -7.67572 8.76946 13.0054 -6.24444 10.1348 11.3194 -4.76411 9.41682 9.33543 -3.19158 9.19581 9.55697 -3.11507 10.168 7.49126 -5.81446 7.33295 7.55824 -6.98583 6.67496 13.8043 -9.10043 8.31803 13.5064 -7.46907 9.02339 13.7161 -9.27012 5.80995 -4.16419 6.74775 -11.3797 -2.53697 5.35054 -13.2241 -3.52651 4.36254 -14.165 -2.70833 5.75922 -14.8767 -5.69307 3.94555 -14.5481 -4.26218 7.8177 -15.6526 -5.18929 5.82852 -15.4793 -6.36914 1.22447 -12.5373 -5.54669 2.14341 -14.0536 -4.57416 3.21776 -8.6015 -4.70865 5.10124 -9.52841 -5.4918 3.57237 -7.11662 -7.44858 2.41353 -4.5507 -7.26251 4.08201 -3.60891 -8.35188 3.31681 -6.8019 -6.31367 1.38685 -4.968 -8.19392 5.24934 -7.10944 -7.45152 5.80487 -5.83358 -7.3193 6.69847 -5.4047 -1.09464 1.99264 -6.16661 0.902763 2.62639 -3.33767 0.0678501 2.02624 -1.8577 -5.5175 3.95073 0.328739 -7.65023 3.33233 -1.12269 -6.90471 4.38817 -2.3784 -6.93574 3.69192 0.699115 -7.47665 1.99645 1.57299 

POINT_DATA 60
FIELD FieldData 1
normals 3 60 double
-0.781017 0.535611 -0.321146 0.687955 0.0755992 0.721805 -0.520361 -0.361574 0.773621 0.223878 -0.439362 0.869965 -0.685452 -0.657311 -0.313206 0.371266 0.762896 0.529293 0.649933 0.494214 -0.577355 0.684398 0.492905 -0.537256 -0.900758 -0.164422 -0.401996 0.873661 0.259221 0.411729 -0.00672664 -0.72293 0.690888 -0.925963 0.119901 0.358074 0.424849 0.866847 -0.26092 0.478304 0.74494 0.465068 -0.908704 0.0298586 0.416371 -0.409536 0.153182 -0.899342 -0.357212 0.85485 -0.37634 -0.27884 -0.920457 0.273874 0.216391 -0.0653185 -0.974119 -0.676526 -0.599807 -0.427251 -0.785069 0.610825 -0.102759 0.885737 0.456889 -0.0819911 -0.408425 0.852492 0.32626 -0.100981 -0.39343 -0.913792 0.722449 -0.438154 -0.534873 0.48286 0.736191 0.474204 -0.482549 0.743557 -0.462893 -0.261009 0.820067 0.509278 0.438528 -0.871232 0.220563 -0.371545 -0.300142 -0.878561 -0.51921 0.84489 0.128774 0.221381 0.786472 0.576587 -0.485379 0.0773588 0.870875 -0.993669 0.00557614 -0.112205 -0.476516 -0.132632 -0.869104 -0.513022 -0.855372 -0.0717489 0.305163 0.541305 -0.783495 0.186766 0.0336861 -0.981827 -0.96224 -0.27 -0.0345565 -0.029775 0.119341 0.992407 0.153262 0.417789 0.895524 0.500449 -0.00972878 0.865712 0.903711 0.210995 0.372542 -0.0852698 -0.0592745 -0.994593 -0.588317 0.729256 -0.349383 0.16596 -0.818287 -0.55033 0.352036 0.850193 0.391463 -0.574279 0.061781 0.816325 -0.968957 0.208387 -0.133034 0.842634 0.456356 0.285843 -0.100227 0.099173 0.99001 -0.232445 -0.794424 0.561124 0.833301 -0.0828775 0.546571 0.11287 0.114775 -0.986959 -0.722043 -0.485379 0.493012 -0.674978 -0.730458 -0.104095 0.751287 0.511815 -0.416669 -0.00576206 0.54403 -0.839046 -0.743259 0.471639 0.474471 0.557663 -0.506735 -0.657443 