# vtk DataFile Version 4.0
Generated by libgran
ASCII
DATASET POLYDATA
POINTS 60 FLOAT
-6.25557 -4.3836 7.94308 -0.617651 -4.23229 8.09567 -3.71928 -4.66599 8.84898 -3.29401 -4.02713 5.12492 -2.15342 -4.24081 1.24797 -3.44846 -2.71552 0.369058 -2.47769 -5.3906 3.95626 -3.60247 -2.12596 1.33714 -8.06299 -4.39279 7.47166 7.81504 -2.87986 5.49901 7.11443 -3.71929 6.28774 7.70662 -0.311901 5.1865 7.07672 0.507896 4.77982 7.6963 1.86213 3.66744 8.91275 2.44069 2.87811 7.51372 2.25451 2.76597 6.33869 2.17272 1.40803 -1.11414 -1.18187 9.17012 -0.934246 -0.797186 7.63596 -1.89294 -2.71428 9.7111 -0.0213803 -1.6801 6.85718 0.738851 -3.18348 5.59533 1.06833 -1.83936 5.30077 11.9581 -6.0304 8.85926 13.7459 -4.16953 9.40726 11.8448 -3.06379 8.56124 9.71284 -1.72235 8.21414 10.0655 -1.34184 9.06908 7.8661 -4.82967 7.61463 7.92486 -6.16325 7.44828 14.5299 -7.41983 8.44994 14.1893 -5.66257 8.65869 14.0902 -8.38296 6.16779 -1.0952 5.99616 -9.64413 -0.331517 4.3705 -11.8299 -1.35823 4.7029 -13.1245 0.348495 5.16112 -13.1864 -2.98145 6.12384 -13.7251 0.906885 7.79555 -13.1336 -1.09547 7.17462 -13.8055 -5.8832 4.40013 -12.9963 -4.23413 4.75429 -13.9874 -4.59133 3.37761 -8.52712 -3.14311 4.89872 -8.62682 -5.45118 3.90792 -7.05953 -8.36515 3.96064 -5.23442 -7.4244 4.64492 -3.70075 -7.6653 5.75735 -6.97734 -8.1375 2.58973 -5.99927 -6.18627 6.94697 -6.47969 -5.71933 6.43844 -5.06161 -5.17681 6.80244 -4.30456 -3.77799 -0.522086 -6.65427 -1.72484 -0.966304 -3.91832 -2.08421 -1.16048 -2.16313 -7.33656 2.42836 -0.143965 -8.9343 3.86123 -1.67434 -7.35476 4.26945 -2.43975 -8.59395 3.16829 0.151056 -10.2819 2.21545 0.593483 

POINT_DATA 60
FIELD FieldData 1
normals 3 60 double
-0.881288 0.339844 -0.328385 0.78405 0.349411 0.513008 -0.345459 -0.094394 0.933675 0.414543 -0.0967776 0.904869 -0.640677 -0.765821 0.0552365 0.324264 0.932411 0.159567 0.481238 0.308386 -0.820553 0.478279 0.342859 -0.808515 -0.92613 -0.349034 -0.143031 0.893284 0.436788 0.106109 0.192676 -0.402649 0.894846 -0.83052 0.335273 0.444779 0.200626 0.484523 -0.851461 0.41895 0.869714 -0.260917 -0.797498 0.291165 0.528413 -0.601531 -0.477337 -0.640554 -0.573502 0.395542 -0.717386 -0.12741 -0.77738 0.615993 0.0524842 -0.392693 -0.918171 -0.651388 -0.755027 -0.0750158 -0.860381 0.490219 -0.139389 0.79419 0.464067 -0.392306 -0.464711 0.880051 0.0977469 -0.196008 -0.668368 -0.717541 0.673382 -0.555378 -0.487966 0.476794 0.867759 0.140221 -0.609467 0.5448 -0.575971 -0.256857 0.925311 0.278971 0.558993 -0.707722 0.432039 -0.500233 -0.625861 -0.598385 -0.570568 0.819612 -0.0518461 0.229972 0.937656 0.260603 -0.357567 0.330934 0.873286 -0.634099 0.760776 -0.138341 -0.134714 0.479497 -0.867142 -0.892001 -0.147104 -0.427428 0.814726 0.31112 -0.489312 0.461059 0.125471 -0.878454 -0.820324 0.544043 -0.176312 -0.256344 -0.146382 0.955437 0.0972459 -0.0681785 0.992922 0.0575505 -0.586331 0.808025 0.635631 -0.620353 0.459495 0.218289 0.269723 -0.93787 0.193167 0.979897 -0.0498931 -0.257179 -0.498574 -0.827818 0.683576 0.185704 0.70586 -0.607517 0.255884 0.751962 -0.484827 0.87234 -0.0629682 0.784505 -0.396942 0.476433 -0.317567 -0.111584 0.941648 -0.860084 -0.475582 0.1846 0.35122 -0.791078 0.50084 -0.160946 -0.153091 -0.975018 -0.520313 -0.347271 0.780178 -0.962881 -0.03227 -0.267989 0.965603 -0.152949 -0.210281 0.613936 0.56117 -0.555131 -0.294515 0.772192 0.56301 0.192199 -0.664736 -0.721932 