# vtk DataFile Version 4.0
Generated by libgran
ASCII
DATASET POLYDATA
POINTS 60 FLOAT
-6.25092 -4.17458 7.78102 -0.615875 -4.21853 8.00483 -3.73753 -4.575 8.70557 -3.246 -3.83673 5.00824 -2.06796 -4.01235 1.14325 -3.29516 -2.42217 0.280123 -2.46764 -5.20003 3.82489 -3.43788 -1.84587 1.25787 -8.05146 -4.10494 7.28876 7.89245 -3.09297 5.55653 7.16021 -3.96915 6.27331 7.85565 -0.535327 5.76064 7.28773 0.411625 5.63828 8.05133 2.04292 5.17894 9.35591 2.79853 4.77317 7.97109 2.75528 4.48176 6.93784 3.2619 3.10077 -1.00785 -1.20523 9.15523 -0.794359 -0.776531 7.63713 -1.849 -2.72326 9.64049 0.0978157 -1.66694 6.84305 0.813578 -3.16027 5.54713 1.20211 -1.82269 5.29833 11.9755 -6.34145 8.78134 13.7731 -4.48633 9.31339 11.8673 -3.37459 8.48807 9.73744 -2.02957 8.15246 10.1001 -1.64104 8.99956 7.8733 -5.17536 7.53629 7.9438 -6.4913 7.26629 14.5369 -7.73779 8.3437 14.2046 -5.97966 8.5585 14.0743 -8.69551 6.06429 -1.48402 6.09378 -10.1129 -0.694871 4.41433 -12.2482 -1.7939 4.60747 -13.5113 -0.128145 5.17913 -13.67 -3.53735 5.87953 -14.1087 0.24195 7.84507 -13.7694 -1.73621 7.05298 -14.3225 -6.27683 3.99867 -13.1707 -4.69848 4.4147 -14.2491 -4.73647 3.30026 -8.71792 -3.40578 4.91093 -8.9548 -5.57226 3.84472 -7.24165 -8.40673 3.78939 -5.2955 -7.45639 4.61556 -3.83958 -7.90775 5.53792 -7.15271 -8.11265 2.39986 -6.00188 -6.49869 6.85134 -6.77873 -5.93991 6.45031 -5.35939 -5.39475 6.88964 -4.64544 -3.56227 -0.418591 -6.69008 -1.4412 -0.684414 -3.95303 -1.84589 -0.871213 -2.20692 -7.07635 2.63316 -0.159914 -8.82868 3.82395 -1.72812 -7.3096 4.31158 -2.56601 -8.38444 3.28327 0.12614 -9.97323 2.22395 0.679565 

POINT_DATA 60
FIELD FieldData 1
normals 3 60 double
-0.864721 0.381083 -0.327159 0.786776 0.310739 0.533315 -0.359814 -0.111899 0.92629 0.400086 -0.137065 0.90617 -0.669967 -0.741649 0.0331766 0.356966 0.916395 0.181096 0.502262 0.305142 -0.809086 0.499685 0.340094 -0.79665 -0.935812 -0.311449 -0.165093 0.899741 0.409278 0.151517 0.167509 -0.466903 0.868298 -0.866075 0.19191 0.46161 0.298152 0.755042 -0.583966 0.46545 0.876257 0.124622 -0.839127 0.12065 0.530386 -0.545694 -0.163901 -0.8218 -0.48755 0.670523 -0.559191 -0.160579 -0.792625 0.588184 0.0529073 -0.36393 -0.929923 -0.680575 -0.725413 -0.102927 -0.839268 0.526476 -0.135844 0.817388 0.442261 -0.369164 -0.428859 0.895317 0.120358 -0.205905 -0.665876 -0.717086 0.667171 -0.557006 -0.494597 0.481441 0.866241 0.133573 -0.614991 0.53996 -0.574656 -0.252349 0.928489 0.272449 0.545576 -0.739306 0.394681 -0.47507 -0.576632 -0.664683 -0.567959 0.821798 -0.0454942 0.235657 0.936329 0.260297 -0.348501 0.330361 0.877159 -0.691927 0.706765 -0.14738 -0.203366 0.423607 -0.882723 -0.895663 -0.230468 -0.380358 0.770092 0.341198 -0.539019 0.41521 0.111656 -0.902848 -0.8635 0.476041 -0.166591 -0.20677 -0.114407 0.971677 0.141726 -0.00992043 0.989856 0.131753 -0.538457 0.832289 0.696297 -0.550243 0.460872 0.160563 0.235438 -0.958535 0.120503 0.987046 -0.105923 -0.253967 -0.557321 -0.790502 0.696368 0.268854 0.665424 -0.593499 0.251597 0.764499 -0.548051 0.832203 -0.0841293 0.829403 -0.316461 0.460373 -0.270621 -0.0845763 0.958963 -0.815774 -0.523913 0.245008 0.436192 -0.727262 0.52993 -0.136828 -0.155586 -0.9783 -0.541517 -0.342386 0.76781 -0.963074 -0.130098 -0.235718 0.969512 -0.0852107 -0.22975 0.549568 0.572836 -0.60814 -0.345017 0.780203 0.521772 0.229928 -0.692328 -0.68397 