# vtk DataFile Version 4.0
Generated by libgran
ASCII
DATASET POLYDATA
POINTS 60 FLOAT
-6.25143 -4.17784 7.78919 -0.616143 -4.21878 8.00756 -3.73697 -4.57577 8.7119 -3.24939 -3.84244 5.01306 -2.07503 -4.02272 1.14717 -3.30392 -2.43437 0.28307 -2.47145 -5.20694 3.83082 -3.44599 -1.85681 1.26016 -8.05248 -4.10975 7.2986 7.88907 -3.09001 5.54949 7.15819 -3.96586 6.26806 7.85051 -0.532138 5.75046 7.28175 0.414228 5.62748 8.04342 2.04566 5.16541 9.34698 2.80201 4.75775 7.96201 2.75699 4.46732 6.92734 3.26071 3.08633 -1.00883 -1.20372 9.15451 -0.797115 -0.77711 7.63557 -1.84863 -2.72158 9.64265 0.094725 -1.66811 6.84177 0.810232 -3.1627 5.54708 1.19752 -1.82517 5.29608 11.9777 -6.33136 8.77439 13.7744 -4.47421 9.3024 11.8669 -3.36495 8.47754 9.73575 -2.02197 8.14232 10.0989 -1.63212 8.98859 7.87342 -5.16995 7.53185 7.94467 -6.48617 7.26341 14.5398 -7.72629 8.336 14.2063 -5.96816 8.54895 14.0757 -8.6872 6.05823 -1.4688 6.08251 -10.1017 -0.684188 4.40292 -12.2386 -1.78112 4.60226 -13.5026 -0.112925 5.16746 -13.6587 -3.51883 5.88216 -14.1 0.267962 7.83203 -13.7539 -1.71278 7.04867 -14.3102 -6.26681 4.01097 -13.1675 -4.68569 4.42219 -14.2436 -4.73388 3.30008 -8.71408 -3.3965 4.90574 -8.94731 -5.56901 3.84581 -7.23791 -8.4057 3.7991 -5.29476 -7.45357 4.61939 -3.83669 -7.89778 5.54824 -7.14897 -8.11645 2.4094 -6.0028 -6.48385 6.85547 -6.77168 -5.92816 6.45019 -5.35234 -5.38199 6.88632 -4.63719 -3.5767 -0.426307 -6.69032 -1.456 -0.700047 -3.95435 -1.85791 -0.886043 -2.20751 -7.08488 2.62861 -0.16066 -8.83099 3.83084 -1.72709 -7.30931 4.31302 -2.5634 -8.39001 3.28427 0.126234 -9.98399 2.23131 0.676892 

POINT_DATA 60
FIELD FieldData 1
normals 3 60 double
-0.865215 0.380211 -0.326869 0.78716 0.311859 0.532093 -0.35887 -0.11075 0.926794 0.401043 -0.13561 0.905966 -0.669536 -0.741962 0.0348447 0.35665 0.916833 0.179494 0.501309 0.304304 -0.809993 0.498725 0.339272 -0.797601 -0.93583 -0.312117 -0.163723 0.899574 0.410151 0.150141 0.168702 -0.465697 0.868715 -0.865776 0.191822 0.462208 0.297013 0.754544 -0.58519 0.464661 0.876887 0.123122 -0.838894 0.120537 0.530781 -0.546077 -0.16556 -0.821212 -0.488588 0.669277 -0.559777 -0.159626 -0.79185 0.589486 0.0520926 -0.365239 -0.929455 -0.680173 -0.726013 -0.101341 -0.839747 0.525757 -0.135662 0.816697 0.442364 -0.370568 -0.429405 0.895163 0.119564 -0.206088 -0.666923 -0.71606 0.667119 -0.557111 -0.49455 0.480908 0.866772 0.132033 -0.615957 0.538778 -0.574731 -0.252795 0.928634 0.27154 0.54652 -0.7384 0.395071 -0.475271 -0.577818 -0.663509 -0.56863 0.821308 -0.0459653 0.235193 0.93683 0.258908 -0.347908 0.331184 0.877085 -0.688934 0.709743 -0.14709 -0.20075 0.425668 -0.88233 -0.896185 -0.226334 -0.381608 0.772013 0.338868 -0.53774 0.41659 0.111266 -0.90226 -0.861411 0.479737 -0.166806 -0.208235 -0.114951 0.9713 0.140659 -0.0118892 0.989987 0.12873 -0.540158 0.83166 0.693606 -0.553684 0.460809 0.1625 0.236147 -0.958034 0.12457 0.986703 -0.104398 -0.25538 -0.555179 -0.791554 0.69675 0.265116 0.666523 -0.593277 0.252895 0.764242 -0.544622 0.834514 -0.0835136 0.82765 -0.320436 0.460778 -0.271953 -0.0848464 0.958563 -0.818122 -0.520982 0.243423 0.432723 -0.729755 0.529347 -0.138678 -0.155628 -0.978033 -0.540584 -0.341625 0.768805 -0.963585 -0.125081 -0.236345 0.969189 -0.0893023 -0.229561 0.552491 0.571487 -0.606759 -0.341543 0.780749 0.523239 0.226931 -0.692002 -0.6853 