# vtk DataFile Version 4.0
Generated by libgran
ASCII
DATASET POLYDATA
POINTS 60 FLOAT
-6.45486 -3.77446 6.19858 -0.909882 -4.2627 7.09973 -4.1105 -4.56365 7.29751 -3.08533 -3.01843 3.97474 -1.37805 -2.37553 0.365723 -2.23017 -0.551541 -0.228339 -2.20148 -4.12196 2.60886 -2.50642 -0.189285 0.820913 -8.16687 -3.4579 5.52191 7.89448 -3.23228 6.04217 7.03542 -4.19107 6.44264 7.94072 -0.78983 6.82757 7.43552 0.199069 6.86036 8.32971 1.82848 6.88608 9.71037 2.55413 6.81732 8.37284 2.68504 6.37189 7.5478 3.57109 5.04312 -1.3408 -1.5883 8.86479 -0.903205 -0.832934 7.53365 -2.29508 -3.11695 8.86683 0.0611298 -1.57281 6.67225 0.886103 -2.77897 5.16317 1.35988 -1.45134 5.2853 11.3628 -7.40803 8.8982 13.1506 -5.85472 10.0588 11.4228 -4.45099 9.28841 9.41736 -2.91386 9.01756 9.67909 -2.75218 9.96909 7.51948 -5.69793 7.46911 7.56899 -6.92159 6.91254 13.8974 -8.85333 8.463 13.6152 -7.16851 9.03685 13.7049 -9.24034 5.98506 -3.70032 6.87685 -11.1724 -2.21069 5.43194 -13.0947 -3.28978 4.63824 -14.1175 -2.29857 5.97522 -14.7147 -5.48193 4.50987 -14.5564 -3.58336 8.2538 -15.356 -4.74119 6.38148 -15.3406 -6.51451 1.75138 -12.7593 -5.5586 2.67237 -14.1939 -4.57982 3.23086 -8.66628 -4.47283 5.17853 -9.45375 -5.48016 3.58473 -7.17085 -7.61059 2.48589 -4.70501 -7.23499 4.05117 -3.64944 -8.35454 3.64863 -6.9074 -6.60286 1.36447 -5.19808 -7.96695 5.56434 -7.07374 -7.19153 5.93517 -5.75132 -6.96485 6.77374 -5.25599 -1.32377 1.33949 -6.29377 0.7529 1.69039 -3.46166 -0.0793181 1.23743 -1.92875 -5.50337 3.6286 0.198016 -7.68962 3.17432 -1.21383 -6.83774 4.22427 -2.40519 -6.93076 3.47445 0.590888 -7.57193 1.86752 1.56345 

POINT_DATA 60
FIELD FieldData 1
normals 3 60 double
-0.795169 0.510293 -0.327577 0.719442 0.12763 0.682725 -0.486151 -0.300805 0.820471 0.261784 -0.372351 0.890407 -0.697405 -0.677923 -0.232479 0.423708 0.776042 0.467151 0.623733 0.447732 -0.640697 0.699958 0.413785 -0.5821 -0.916844 -0.193733 -0.349091 0.887941 0.298475 0.349962 0.0288851 -0.660316 0.750432 -0.911083 0.145806 0.385576 0.405882 0.843093 -0.352779 0.488308 0.786319 0.378494 -0.892348 0.0606692 0.447252 -0.445178 0.0702416 -0.892683 -0.379866 0.815801 -0.436085 -0.265637 -0.895891 0.356112 0.171954 -0.140526 -0.97503 -0.688649 -0.632764 -0.35408 -0.79238 0.59935 -0.113634 0.877172 0.455043 -0.153313 -0.403396 0.872585 0.27544 -0.136002 -0.471712 -0.871201 0.703066 -0.479139 -0.525476 0.495911 0.777034 0.387674 -0.508255 0.698101 -0.504313 -0.246527 0.85978 0.447217 0.45517 -0.846538 0.276033 -0.405654 -0.377124 -0.8326 -0.520783 0.850172 0.0774085 0.238555 0.834648 0.496441 -0.448819 0.150075 0.880931 -0.983587 0.131521 -0.123523 -0.470699 -0.01262 -0.882203 -0.608386 -0.781086 -0.140609 0.382818 0.5559 -0.737852 0.209718 0.0814245 -0.974366 -0.986378 -0.150696 -0.0659411 -0.0360923 0.0507337 0.99806 0.182678 0.331562 0.925578 0.477801 -0.130967 0.868651 0.914321 0.0751774 0.397952 -0.0709841 0.0225203 -0.997223 -0.491268 0.816925 -0.302141 0.0711915 -0.790397 -0.608445 0.446798 0.774885 0.44713 -0.578415 0.0728651 0.812482 -0.936541 0.331027 -0.11538 0.88401 0.332002 0.329093 -0.108592 0.0388284 0.993328 -0.335272 -0.799744 0.497998 0.795124 -0.264748 0.545607 0.0939507 0.0466914 -0.994481 -0.738268 -0.406269 0.538429 -0.715235 -0.696921 -0.0523463 0.802323 0.448155 -0.394251 0.0495553 0.60179 -0.797115 -0.712161 0.542778 0.445218 0.537308 -0.576259 -0.615813 