# vtk DataFile Version 4.0
Generated by libgran
ASCII
DATASET POLYDATA
POINTS 60 FLOAT
-6.4053 -3.69933 5.65606 -0.904872 -4.26453 6.75635 -4.10907 -4.57528 6.79031 -2.94504 -2.7826 3.64212 -1.08499 -1.8697 0.1693 -2.00439 0.00194339 -0.332058 -2.00113 -3.78037 2.23566 -2.31757 0.271918 0.73448 -8.08706 -3.32825 4.93285 7.93988 -3.23834 6.14233 7.0595 -4.22049 6.42155 7.96505 -0.8735 7.138 7.46393 0.113247 7.23512 8.36716 1.725 7.43918 9.75419 2.44005 7.48769 8.43589 2.62314 7.00491 7.66898 3.63122 5.72937 -1.40128 -1.74075 8.68684 -0.905999 -0.885564 7.4389 -2.35665 -3.26102 8.53349 0.0955353 -1.56172 6.56763 0.976157 -2.65607 5.01002 1.45365 -1.34676 5.2543 11.261 -7.67578 8.76956 13.0055 -6.24443 10.1349 11.3195 -4.76414 9.4168 9.33553 -3.19164 9.19577 9.55708 -3.11509 10.1679 7.49134 -5.81461 7.33305 7.55832 -6.98601 6.6751 13.8044 -9.10048 8.31813 13.5066 -7.46909 9.02344 13.7162 -9.27027 5.81007 -4.1643 6.74781 -11.3797 -2.53693 5.3507 -13.224 -3.52637 4.36263 -14.1649 -2.70825 5.75936 -14.8766 -5.69289 3.94551 -14.5481 -4.26221 7.81774 -15.6526 -5.18919 5.8285 -15.4794 -6.36886 1.22438 -12.5373 -5.54642 2.14338 -14.0536 -4.57414 3.21781 -8.60149 -4.70872 5.10127 -9.52841 -5.49186 3.57236 -7.11664 -7.44865 2.4134 -4.55079 -7.26272 4.0819 -3.609 -8.35193 3.31662 -6.80202 -6.31366 1.3868 -4.96805 -8.19408 5.24916 -7.10956 -7.45176 5.80474 -5.83368 -7.31961 6.69835 -5.40479 -1.09463 1.99291 -6.16648 0.902635 2.6268 -3.33747 0.0677087 2.02659 -1.85752 -5.51784 3.95075 0.328714 -7.65048 3.3322 -1.12278 -6.90498 4.38809 -2.37848 -6.93608 3.69184 0.699042 -7.47691 1.99634 1.5729 

POINT_DATA 60
FIELD FieldData 1
normals 3 60 double
-0.781039 0.53556 -0.321174 0.687924 0.0756499 0.72183 -0.520365 -0.361605 0.773604 0.223875 -0.439345 0.869975 -0.6854 -0.657355 -0.313228 0.3712 0.762921 0.529304 0.649922 0.494254 -0.577334 0.684385 0.492947 -0.537234 -0.90073 -0.16448 -0.402035 0.873666 0.259246 0.411702 -0.00670598 -0.722903 0.690917 -0.925957 0.119906 0.358087 0.424835 0.866841 -0.260963 0.478395 0.744916 0.465015 -0.908641 0.0298749 0.416507 -0.409666 0.153215 -0.899277 -0.357243 0.854869 -0.376266 -0.278779 -0.920485 0.273843 0.216502 -0.0652957 -0.974096 -0.67659 -0.599781 -0.427187 -0.785033 0.61086 -0.102831 0.885792 0.456778 -0.082011 -0.408303 0.852535 0.326301 -0.100995 -0.393467 -0.913774 0.722443 -0.438168 -0.53487 0.482862 0.736214 0.474165 -0.482565 0.743534 -0.462913 -0.261007 0.820085 0.50925 0.438541 -0.871219 0.220589 -0.371559 -0.300181 -0.878542 -0.519216 0.84489 0.12875 0.221385 0.786497 0.576551 -0.485363 0.0773885 0.870881 -0.993666 0.00551322 -0.11224 -0.476478 -0.132665 -0.86912 -0.512965 -0.855404 -0.0717641 0.305156 0.541322 -0.783486 0.186798 0.0336948 -0.98182 -0.962222 -0.270061 -0.0345891 -0.029817 0.119342 0.992405 0.153205 0.417801 0.895528 0.500419 -0.00969462 0.865729 0.903685 0.211053 0.372573 -0.0852315 -0.0592829 -0.994596 -0.588351 0.729218 -0.349405 0.16603 -0.818279 -0.550322 0.351969 0.850216 0.391473 -0.574312 0.0617473 0.816305 -0.968965 0.208326 -0.133068 0.842595 0.45641 0.285871 -0.100268 0.0991697 0.990006 -0.232415 -0.794437 0.561118 0.833287 -0.0828234 0.546601 0.112897 0.114779 -0.986955 -0.72203 -0.485423 0.492988 -0.674929 -0.7305 -0.104116 0.751269 0.511861 -0.416645 -0.00576715 0.544027 -0.839048 -0.743305 0.471593 0.474444 0.557718 -0.506702 -0.657422 