# vtk DataFile Version 4.0
Generated by libgran
ASCII
DATASET POLYDATA
POINTS 60 FLOAT
-6.25677 -4.36778 7.9469 -0.618211 -4.23332 8.08641 -3.71923 -4.65772 8.84691 -3.30067 -4.02126 5.12166 -2.16986 -4.24377 1.24264 -3.46156 -2.71517 0.364563 -2.49176 -5.38845 3.95337 -3.61118 -2.12367 1.33214 -8.0653 -4.37154 7.47972 7.81252 -2.912 5.46511 7.11275 -3.7447 6.26169 7.71156 -0.344979 5.20436 7.09425 0.504149 4.84085 7.74379 1.92659 3.83587 8.97951 2.54962 3.11314 7.58232 2.38007 2.95938 6.43612 2.39742 1.57471 -1.10175 -1.18231 9.16003 -0.92398 -0.798541 7.62539 -1.88432 -2.71191 9.70349 -0.015585 -1.68474 6.84512 0.736389 -3.19134 5.58252 1.07035 -1.8486 5.28671 11.9599 -6.0484 8.83317 13.7533 -4.18754 9.36296 11.8517 -3.08363 8.51561 9.72134 -1.74019 8.16633 10.0775 -1.35468 9.01757 7.86642 -4.84769 7.59359 7.92196 -6.18247 7.436 14.5276 -7.44578 8.42497 14.1912 -5.68647 8.62302 14.0786 -8.42329 6.15076 -1.10359 5.96984 -9.67033 -0.350276 4.33769 -11.8549 -1.3791 4.6708 -13.1476 0.328883 5.12362 -13.2145 -2.99937 6.09562 -13.7469 0.895498 7.7564 -13.168 -1.11037 7.1404 -13.8339 -5.90465 4.38229 -13.0078 -4.25691 4.72946 -14.0036 -4.60509 3.36425 -8.53987 -3.15241 4.88067 -8.64598 -5.45972 3.89999 -7.07121 -8.36907 3.9652 -5.23914 -7.42247 4.64947 -3.70906 -7.6679 5.75642 -6.98717 -8.14752 2.59214 -6.00194 -6.184 6.9424 -6.49537 -5.71518 6.43511 -5.07746 -5.1697 6.79886 -4.32243 -3.79922 -0.534347 -6.66154 -1.74146 -0.979022 -3.92943 -2.09782 -1.1687 -2.17313 -7.33297 2.44014 -0.147689 -8.92996 3.87408 -1.67785 -7.35093 4.27618 -2.44753 -8.58766 3.18424 0.148361 -10.2773 2.23713 0.596503 

POINT_DATA 60
FIELD FieldData 1
normals 3 60 double
-0.881005 0.342465 -0.326415 0.786147 0.3475 0.511094 -0.343545 -0.0930288 0.934517 0.416294 -0.0976556 0.90397 -0.643255 -0.763461 0.0578816 0.32795 0.931485 0.15743 0.480375 0.305478 -0.822146 0.477572 0.339977 -0.810149 -0.92753 -0.346224 -0.140772 0.8945 0.435665 0.100324 0.194732 -0.397037 0.896907 -0.838325 0.309446 0.448836 0.221017 0.539682 -0.812339 0.428525 0.882754 -0.192644 -0.807192 0.259717 0.530083 -0.589994 -0.429267 -0.683839 -0.556205 0.446619 -0.700834 -0.128337 -0.77685 0.616469 0.0494298 -0.393084 -0.918173 -0.654242 -0.752753 -0.0730154 -0.858966 0.493115 -0.137898 0.795079 0.460878 -0.39426 -0.461118 0.88186 0.0984553 -0.199658 -0.672763 -0.712409 0.670691 -0.56001 -0.486377 0.478992 0.867705 0.13287 -0.610212 0.542168 -0.577664 -0.254093 0.927682 0.273574 0.558945 -0.705951 0.434987 -0.50341 -0.628833 -0.592576 -0.569076 0.820408 -0.0555222 0.2327 0.938911 0.253568 -0.354094 0.337511 0.872184 -0.632084 0.762466 -0.138259 -0.135335 0.478268 -0.867724 -0.893486 -0.145151 -0.424988 0.814494 0.307669 -0.491873 0.459308 0.122381 -0.879806 -0.81906 0.546247 -0.175368 -0.254496 -0.14379 0.956324 0.0994481 -0.0665971 0.992812 0.0577019 -0.584976 0.808995 0.634825 -0.621447 0.45913 0.216842 0.267268 -0.938908 0.196075 0.979197 -0.0522257 -0.260732 -0.499343 -0.826242 0.685862 0.184923 0.703844 -0.604892 0.259189 0.752946 -0.482278 0.873717 -0.0634509 0.78443 -0.398467 0.475282 -0.315619 -0.108816 0.942626 -0.861099 -0.472565 0.187591 0.350027 -0.791161 0.501543 -0.163327 -0.154604 -0.974383 -0.519688 -0.344281 0.781918 -0.963538 -0.0301664 -0.265865 0.96472 -0.156121 -0.211996 0.614317 0.558213 -0.557686 -0.29115 0.774263 0.561915 0.188796 -0.666873 -0.720858 