# vtk DataFile Version 4.0
Generated by libgran
ASCII
DATASET POLYDATA
POINTS 60 FLOAT
-6.24644 -4.13511 7.68335 -0.614725 -4.2162 7.97049 -3.74602 -4.56471 8.62974 -3.20795 -3.77266 4.94996 -1.98685 -3.89757 1.09638 -3.19401 -2.28662 0.243585 -2.42471 -5.12297 3.75499 -3.34428 -1.72423 1.22827 -8.04078 -4.04725 7.17181 7.92885 -3.12575 5.63546 7.18137 -4.00574 6.33153 7.91072 -0.570998 5.87521 7.352 0.382291 5.75986 8.13623 2.01234 5.33188 9.45195 2.76043 4.94882 8.06936 2.73592 4.64492 7.05344 3.27398 3.26297 -0.998973 -1.22149 9.15953 -0.764936 -0.770278 7.65101 -1.85572 -2.74088 9.61218 0.130966 -1.65449 6.85421 0.850336 -3.13376 5.545 1.25241 -1.79582 5.32087 11.9483 -6.45313 8.85976 13.7549 -4.62075 9.4381 11.8677 -3.48165 8.6072 9.75292 -2.1143 8.26669 10.1091 -1.74073 9.12322 7.87016 -5.23546 7.58529 7.93293 -6.54802 7.29756 14.503 -7.86457 8.43126 14.1827 -6.10691 8.6671 14.0584 -8.78634 6.1335 -1.65949 6.21761 -10.2389 -0.820435 4.54101 -12.3574 -1.94206 4.66372 -13.6093 -0.305973 5.3074 -13.798 -3.74843 5.84583 -14.2046 -0.0584462 7.98537 -13.9439 -2.00507 7.09582 -14.4595 -6.38838 3.85862 -13.2026 -4.84349 4.32793 -14.3072 -4.76497 3.30305 -8.7592 -3.51166 4.96814 -9.03815 -5.60697 3.83315 -7.28122 -8.41262 3.68148 -5.29878 -7.48348 4.57332 -3.86814 -8.01566 5.42032 -7.18939 -8.06422 2.29535 -5.98689 -6.6633 6.80198 -6.85394 -6.07003 6.44974 -5.43565 -5.5369 6.92482 -4.73563 -3.39915 -0.325455 -6.68817 -1.2718 -0.509744 -3.94066 -1.70659 -0.707737 -2.20304 -6.97445 2.68557 -0.152084 -8.79492 3.74993 -1.73353 -7.30788 4.29705 -2.59192 -8.31281 3.27331 0.128834 -9.84147 2.14562 0.715534 

POINT_DATA 60
FIELD FieldData 1
normals 3 60 double
-0.858761 0.391229 -0.330861 0.782296 0.297801 0.547109 -0.370926 -0.124193 0.920321 0.388807 -0.153316 0.908473 -0.674972 -0.737705 0.0143154 0.360647 0.911223 0.199013 0.513413 0.314053 -0.79861 0.510914 0.34883 -0.785675 -0.935586 -0.303368 -0.180683 0.90129 0.399577 0.167375 0.153809 -0.480414 0.86345 -0.869655 0.192654 0.454515 0.310943 0.760635 -0.569867 0.473278 0.869411 0.141887 -0.842448 0.12132 0.524941 -0.540146 -0.14583 -0.82884 -0.475768 0.683892 -0.553115 -0.171896 -0.800832 0.57369 0.0621412 -0.349615 -0.93483 -0.684855 -0.718556 -0.12104 -0.83376 0.534595 -0.138029 0.825103 0.441046 -0.353106 -0.423028 0.896891 0.128975 -0.203208 -0.654014 -0.728679 0.668151 -0.555576 -0.494883 0.486983 0.860228 0.151183 -0.60398 0.553086 -0.57385 -0.247801 0.926656 0.282673 0.53498 -0.749302 0.390312 -0.47221 -0.563265 -0.678049 -0.560647 0.827075 -0.040269 0.240359 0.930585 0.276115 -0.355713 0.320934 0.877764 -0.724993 0.672289 -0.149713 -0.232879 0.399568 -0.88663 -0.888749 -0.276858 -0.365341 0.747341 0.366829 -0.554002 0.398932 0.115597 -0.909665 -0.886135 0.433767 -0.163126 -0.189777 -0.107808 0.97589 0.153811 0.0125998 0.98802 0.165956 -0.518342 0.838916 0.725989 -0.51065 0.460626 0.138285 0.226825 -0.964068 0.0743177 0.989628 -0.122935 -0.237813 -0.581015 -0.778374 0.691327 0.310834 0.652265 -0.595156 0.23693 0.767889 -0.586214 0.805112 -0.0902643 0.848334 -0.271131 0.454771 -0.255062 -0.0811031 0.963517 -0.788183 -0.55618 0.263499 0.475026 -0.698093 0.535739 -0.117632 -0.152423 -0.98129 -0.552426 -0.350416 0.75633 -0.956361 -0.184754 -0.22636 0.971311 -0.0399939 -0.234427 0.515724 0.587111 -0.623962 -0.382002 0.772491 0.507278 0.261603 -0.694221 -0.670537 