# vtk DataFile Version 4.0
Generated by libgran
ASCII
DATASET POLYDATA
POINTS 60 FLOAT
-6.18138 -3.59626 8.42451 -0.526843 -3.35359 8.54142 -3.65251 -3.67837 9.38969 -3.21797 -3.62483 5.60377 -2.14073 -4.35975 1.7666 -3.50508 -3.00734 0.716052 -2.38105 -5.12899 4.61542 -3.65648 -2.29311 1.59664 -7.98176 -3.71845 7.94202 7.88205 -2.56352 5.70366 7.12592 -3.47896 6.34229 7.96785 0.0374629 5.67067 7.35409 0.8868 5.3017 7.94892 2.17573 4.10168 9.11972 2.65978 3.18929 7.70759 2.55995 3.21056 6.40866 2.52412 1.96843 -1.04905 -0.18561 9.19357 -0.883433 -0.014725 7.61961 -1.8341 -1.62104 9.94902 0.0269773 -0.985913 6.95081 0.806642 -2.62213 5.85326 1.08789 -1.31821 5.38139 11.7933 -6.6508 8.23062 13.7517 -5.09272 9.06537 11.9416 -3.68512 8.52242 9.93369 -2.12579 8.52359 10.3364 -1.95342 9.42257 7.80292 -4.88465 7.40259 7.73692 -6.16138 6.98404 14.2213 -8.1436 7.46311 14.0443 -6.44006 8.02365 13.6522 -8.59547 5.05456 -1.07462 6.05104 -9.42428 -0.0925797 5.08556 -11.8946 -1.13467 5.60487 -13.1132 0.506718 6.25166 -12.9939 -2.9087 6.93921 -13.4231 0.76249 8.84979 -12.3028 -1.14809 8.18929 -13.1703 -5.59564 4.71202 -13.2902 -3.98053 5.54101 -14.07 -4.39596 2.98089 -9.03746 -3.07187 4.60853 -8.73636 -5.41011 3.30912 -7.4187 -8.39895 3.24199 -5.68846 -7.53672 3.95998 -4.12434 -7.67054 5.07354 -7.44574 -8.09977 1.87645 -6.43813 -6.26328 6.31561 -6.86637 -5.84329 5.81392 -5.43127 -5.35183 6.19271 -4.6471 -3.82618 -1.26948 -6.57526 -1.96778 -1.78217 -3.82463 -2.25528 -1.7784 -2.04562 -7.55287 1.90618 -0.478819 -9.12883 3.19457 -2.16211 -7.51803 3.61244 -2.85359 -8.8506 2.61084 -0.291972 -11.4686 1.89732 1.18264 

POINT_DATA 60
FIELD FieldData 1
normals 3 60 double
-0.883378 0.264998 -0.386548 0.799762 0.420595 0.428347 -0.356248 0.0448271 0.933315 0.428542 0.0526538 0.901986 -0.616228 -0.767483 0.176728 0.295722 0.955082 0.0191516 0.457714 0.203995 -0.865381 0.447127 0.240853 -0.861433 -0.916996 -0.387184 -0.0959477 0.930547 0.33196 0.154548 0.174412 -0.583473 0.793183 -0.763529 0.396317 0.509859 0.149763 0.453021 -0.87883 0.445072 0.835913 -0.321187 -0.725723 0.351868 0.591198 -0.686403 -0.4517 -0.569928 -0.612531 0.415877 -0.6722 -0.124784 -0.68536 0.717433 0.0408289 -0.514475 -0.856533 -0.660266 -0.750069 0.0380127 -0.869581 0.456713 -0.187729 0.770075 0.431546 -0.469843 -0.48883 0.872377 -0.00202742 -0.269308 -0.494201 -0.826583 0.611032 -0.502596 -0.611585 0.555569 0.779478 0.289408 -0.568832 0.697873 -0.435206 -0.16613 0.870236 0.463778 0.502588 -0.822225 0.267116 -0.568586 -0.4545 -0.685668 -0.49544 0.858799 0.130396 0.318428 0.844739 0.430139 -0.309212 0.180525 0.933702 -0.705125 0.708843 0.018443 -0.179228 0.657027 -0.732251 -0.86286 -0.13772 -0.486318 0.778527 0.509075 -0.367068 0.456901 0.388337 -0.800273 -0.874589 0.479039 -0.0749409 -0.242795 -0.39538 0.885847 0.0848448 -0.273737 0.958055 0.110307 -0.753012 0.648695 0.673901 -0.6342 0.379009 0.221057 0.469552 -0.854784 0.169061 0.984885 -0.0376742 -0.211621 -0.509967 -0.833757 0.650614 0.208023 0.730362 -0.647915 0.222282 0.728558 -0.510806 0.855574 -0.0840865 0.776581 -0.369592 0.51022 -0.356589 -0.132102 0.924875 -0.848051 -0.510894 0.140703 0.120568 -0.842386 0.525214 -0.203163 -0.25621 -0.94503 -0.490659 -0.25244 0.833983 -0.947445 -0.0914852 -0.306558 0.978884 -0.137694 -0.151083 0.631923 0.555562 -0.540393 -0.350287 0.796147 0.493404 -0.349231 -0.932651 -0.0905554 