# vtk DataFile Version 4.0
Generated by libgran
ASCII
DATASET POLYDATA
POINTS 144 FLOAT
-7.00624 -5.8739 11.1297 -6.22645 -4.85494 12.3951 -5.22418 -4.61556 12.7639 -6.82565 -3.97899 13.1402 -2.09685 -6.05495 11.7219 -2.39438 -4.7599 10.9166 -4.18866 -4.51127 13.1566 -2.65691 -4.3244 9.94727 -1.76435 -2.50919 7.07346 -2.76487 -1.77699 5.97039 -3.60386 -4.24319 8.49454 -0.327795 -1.73787 7.9057 -3.02267 -1.6892 4.59477 -3.9917 -1.86561 3.579 -5.15075 -0.458773 3.51369 -2.50298 -2.95656 4.30853 -2.00377 -4.54225 4.74496 -0.971823 -3.07088 4.87781 -7.32248 -1.78682 4.29829 -7.40577 -3.24925 3.61293 -6.15202 -0.233574 4.01896 -7.07409 -3.2502 2.13712 -7.43535 -2.19921 0.491489 -8.59687 -3.38757 13.0941 4.9743 -2.5786 9.80617 3.93865 -2.43384 9.0425 7.59131 -1.79297 9.17393 7.72163 -0.931952 7.96219 8.91156 -1.72359 8.67172 8.03454 -2.74731 8.68816 6.22362 -1.89774 10.3427 7.78963 0.907306 7.76908 10.0408 -2.51669 8.73211 9.00673 1.54237 7.47283 8.19067 2.03143 6.89923 7.35729 2.63388 6.15405 8.43881 3.01949 5.34447 7.93377 2.24299 4.96768 10.7652 2.68603 1.64841 10.6817 3.4034 2.87958 9.45679 3.52383 4.27356 8.13287 3.03647 4.39257 8.10678 4.42511 5.3552 6.94819 2.26506 3.28224 5.97544 3.17061 2.22737 2.38354 -1.66054 9.64518 3.30443 -2.27331 8.22252 1.33981 -0.644135 9.88323 -0.115802 0.56869 12.3848 0.046259 1.57671 11.1635 -1.38211 -0.711794 12.4506 0.480159 0.978003 9.87026 0.665668 -0.359322 8.91592 0.907183 -0.406753 7.84737 0.915545 0.903423 7.3132 12.7996 -9.02811 7.46023 11.7308 -8.07001 6.38733 14.1247 -9.78745 8.0295 13.4811 -5.69602 6.20887 14.7983 -5.65293 6.1346 13.459 -4.83078 7.35116 10.3934 -6.72778 6.20585 12.9547 -3.50669 7.38509 13.878 -2.33481 7.50581 15.3667 -2.54001 7.75421 16.2072 -2.12838 7.06079 17.0297 -2.62981 7.32937 8.48349 -4.55327 8.99725 8.39388 -5.47675 8.02321 8.71105 -5.85904 6.73027 17.1033 -1.68885 6.99895 15.675 -1.35221 5.95202 15.1937 -12.0989 5.6608 14.9227 -10.7926 6.87228 14.242 -11.5153 5.37277 14.7105 -11.5189 2.36831 14.1464 -11.6187 4.07691 15.6398 -10.9684 3.01043 -6.97346 0.0646297 0.489264 -7.94364 1.20113 1.49654 -7.0747 -0.971716 -0.337808 -5.4565 -0.034456 -0.310395 1.48002 6.2408 -14.0696 -0.161165 6.36248 -13.3353 -0.112687 5.23198 -13.5549 2.47443 7.5865 -14.3452 2.3966 9.14726 -14.9765 3.27502 8.82398 -13.4763 1.31258 9.73434 -16.2909 2.90624 10.1355 -15.2296 0.388267 10.7087 -16.612 4.35051 8.94727 -11.8626 4.78481 9.41008 -10.176 4.07036 9.66267 -8.76377 3.09155 10.1827 -8.56655 -8.10933 6.28134 -17.3158 -7.64451 6.84574 -19.0541 -7.84684 5.17621 -16.4722 -7.38448 3.43225 -16.0401 -6.41849 6.73201 -19.3602 -6.46577 3.38398 -15.3596 -7.41801 3.0568 -14.5906 -5.58938 3.73947 -14.352 -4.64215 2.70971 -13.3223 -3.22944 2.78674 -13.3385 -2.44528 3.80134 -14.4317 -4.52548 1.38193 -12.8087 -8.5188 4.1482 -10.6782 -7.98164 3.34229 -11.803 -9.96322 3.88207 -9.7664 -8.98197 4.55128 -8.97308 -7.7953 2.91869 -12.8841 -6.41525 1.31006 -7.0394 -5.80751 2.60309 -7.42199 -8.10341 1.02976 -6.47455 -8.70129 0.39005 -7.15535 -9.05985 1.58137 -5.68648 -6.532 3.96279 -7.82104 -8.08316 4.73699 -8.31255 -8.29881 5.7409 -7.79598 -7.86452 -0.957498 -7.14715 -6.45049 -1.74756 -6.35732 -4.80349 -1.93372 -5.44131 -7.26102 6.09181 -6.54751 -7.11794 6.19018 -4.74384 -7.73785 5.52251 -5.15605 -6.69601 6.44387 -3.06387 -7.93693 5.89714 -4.2505 -2.18578 -1.23723 -5.51187 -3.15275 -1.7925 -4.64087 -2.27854 -0.866952 -3.9048 -4.59114 -0.829268 -0.56716 -2.88999 0.362401 -2.52699 -3.93324 0.494268 -1.06351 -9.09216 0.894371 -1.12073 -10.4366 1.4411 -2.18899 -10.6195 0.0431905 -1.71612 -10.7347 1.49401 -3.58378 -11.4498 0.820264 -4.84011 -9.79521 1.49162 -4.59687 -12.0838 -0.194345 -1.59415 -13.1387 0.714899 -0.450477 -13.7812 0.109675 -1.76668 -16.0235 -1.22996 -0.0453788 

POINT_DATA 144
FIELD FieldData 1
normals 3 144 double
0.596507 0.73409 0.324487 0.183285 0.284867 0.940881 0.818981 -0.0454827 -0.572015 -0.782489 0.591084 -0.195783 0.759544 -0.495636 0.421234 0.462017 0.799412 -0.384033 0.216547 0.149776 0.964715 -0.72454 -0.363913 -0.585328 0.888947 0.0232358 0.457421 -0.111567 0.755441 -0.645649 0.222412 -0.445127 0.867407 0.547613 0.748087 0.374814 -0.146235 -0.667653 -0.729969 0.8228 -0.49124 0.285803 -0.336249 0.915598 0.220492 0.665926 -0.599711 0.443722 0.166714 0.985978 0.00728732 0.86523 0.485398 0.125561 0.505435 0.862848 0.00543818 0.422144 -0.599584 -0.679922 0.665021 0.690399 -0.284773 -0.0904631 0.59864 -0.795893 -0.270801 0.452347 -0.849735 -0.98873 0.000338678 0.149711 0.295964 0.527396 0.796404 -0.739685 0.672157 0.0327281 -0.414325 0.0487005 0.908825 -0.283996 0.90972 -0.302913 0.905934 0.118081 0.406621 0.0289068 -0.905642 0.423057 -0.953359 -0.153467 0.259913 0.351994 0.929538 0.10981 0.223303 -0.911185 -0.346234 -0.865099 0.294472 0.406066 0.0490388 0.194584 -0.979659 0.882418 -0.407871 -0.234475 0.199102 0.793482 -0.575104 -0.305937 0.0169773 -0.9519 0.32242 0.886091 0.333 -0.405997 -0.168712 0.898166 -0.818881 0.289143 0.495812 -0.505039 -0.776505 -0.376797 -0.531127 0.612135 0.585829 -0.679637 0.00509223 -0.733531 -0.293113 0.900456 -0.321348 -0.815428 0.101139 0.569955 0.105465 -0.511625 -0.852711 -0.228296 0.91527 -0.331907 -0.359521 -0.899857 0.246985 -0.197459 0.108162 -0.974326 -0.906789 -0.380627 -0.181263 -0.631359 0.706868 0.318941 -0.44585 -0.630458 -0.635406 0.687365 0.583027 -0.433138 -0.679004 0.727149 -0.101033 0.586876 -0.125494 0.799892 -0.481896 0.83261 -0.273014 0.738273 -0.633849 -0.230627 -0.68354 -0.388899 -0.617681 0.633731 -0.345807 -0.691956 -0.705611 0.476341 0.524606 -0.855519 0.509614 0.0915428 0.201361 0.847754 -0.49068 0.721895 0.324125 0.611401 -0.766841 0.529327 0.362998 0.0736338 0.940957 -0.33042 0.896095 0.439533 -0.0618466 0.42005 -0.900316 -0.113968 -0.509661 -0.0231636 -0.860064 -0.826829 0.359127 0.432877 0.822461 -0.501424 0.268574 -0.605812 -0.164787 -0.778355 -0.2113 0.934982 0.284889 -0.0597041 0.371303 0.92659 -0.740465 -0.351384 -0.572924 0.0807522 0.14816 0.985661 -0.644876 -0.24799 0.722936 0.848612 0.402292 -0.343538 0.530205 -0.2612 -0.806633 -0.439983 0.875305 0.200639 -0.631452 -0.775146 -0.0204382 0.986747 0.162114 0.0069747 0.829613 0.369762 -0.418351 -0.811574 0.491444 0.315958 -0.763096 -0.639061 0.0963592 0.164791 0.975941 0.142772 -0.242619 0.58482 -0.774029 0.6358 0.261542 0.726192 -0.841397 0.00225745 -0.540413 0.752263 0.403464 0.520881 -0.0829197 0.972112 0.21937 -0.439694 0.138253 -0.887443 -0.00539944 0.601063 0.799184 -0.709051 -0.348475 0.613034 0.269751 -0.868525 0.415812 0.0439958 -0.1402 0.989145 0.508812 0.424199 -0.74911 0.218485 -0.964933 -0.145492 0.243876 -0.779029 0.577615 0.717211 -0.537927 0.442992 0.67484 0.730764 0.102836 -0.277407 0.403576 0.871878 0.201551 -0.375275 0.904735 0.745673 -0.654486 0.124979 -0.667041 -0.731519 0.141197 0.117122 0.283075 -0.95192 -0.629002 -0.673292 0.388631 -0.450699 -0.159369 0.878335 0.0864574 -0.965285 -0.246476 -0.993722 -0.106769 0.0334253 -0.0124737 0.562446 0.82674 0.0998818 0.541684 -0.834627 -0.692364 -0.330777 0.641263 -0.0846206 0.962251 0.258673 -0.995798 0.0504789 -0.0764067 0.397918 -0.690189 -0.604401 0.0393562 0.50113 0.864477 -0.639872 0.397457 -0.657717 -0.911287 0.376738 0.166207 0.695634 0.627169 0.35036 -0.438853 0.657359 -0.612607 0.975183 -0.132705 0.17722 0.67181 -0.0534516 0.738792 0.342156 -0.276257 0.898116 -0.199071 0.374629 0.905551 -0.818989 -0.293041 0.49334 -0.621002 0.120942 -0.774422 -0.619917 -0.667671 -0.412212 0.0119581 -0.360603 0.932643 0.97893 0.194671 0.0616449 -0.104718 0.730877 0.674428 0.121381 0.956926 0.26374 0.506729 -0.498476 -0.703382 -0.53652 -0.366609 0.760094 0.881574 0.0994624 0.461448 -0.462824 0.646191 -0.606821 -0.645739 -0.751718 -0.133947 0.164731 -0.593276 -0.787964 0.879858 0.0804737 0.468373 0.774711 0.59088 -0.225129 -0.818609 0.514182 0.255922 -0.236287 0.395062 0.887747 -0.878782 -0.210161 -0.428457 -0.61196 -0.712189 0.343935 