# vtk DataFile Version 4.0
Generated by libgran
ASCII
DATASET POLYDATA
POINTS 144 FLOAT
-2.57773 -6.39581 11.7616 -2.99396 -4.88243 12.647 -2.70375 -3.82743 12.6727 -3.98379 -4.7402 13.4726 -0.252276 -2.09492 10.6703 -1.70802 -1.92697 10.1538 -2.28672 -2.79721 12.7187 -2.4284 -2.1069 9.3495 -3.6987 -1.67487 7.16709 -5.00586 -0.903891 6.49572 -3.35665 -3.21047 8.38293 -2.11941 -0.865379 7.61637 -5.52559 -0.641167 5.22005 -6.55583 -0.680361 4.25106 -7.71077 0.717847 4.44589 -5.02253 -1.84867 4.72301 -4.48047 -3.47321 4.86873 -3.46708 -2.02148 5.20493 -9.68664 -0.770031 5.39871 -9.46277 -2.32687 5.02293 -8.64491 0.866853 5.08902 -8.46615 -2.39997 3.8875 -7.90788 -1.38018 2.27768 -5.33623 -5.94837 13.9202 3.23073 -1.49515 6.87724 1.95906 -1.28754 6.74923 5.21836 -0.500762 5.16549 4.83318 0.5619 4.19135 6.12416 -0.37 4.08723 5.2617 -1.36097 4.38996 4.60251 -0.841268 6.82448 4.99617 2.40327 4.2782 7.07183 -1.30628 3.72223 6.03821 3.03342 3.5786 5.11197 3.63828 3.47668 4.10633 4.37768 3.24274 4.78734 4.85707 2.11128 4.10047 4.16699 1.88325 5.30132 5.04384 -2.22116 5.82635 5.55926 -0.998017 5.31401 5.49774 0.788523 4.11819 5.03683 1.39023 4.62457 6.25162 2.45018 2.51298 4.49048 0.793413 1.28157 5.583 0.382244 0.934266 -0.670666 8.14523 1.00492 -1.04853 6.38464 0.0968473 0.22234 8.97011 -0.344134 0.820035 11.8561 -0.834069 2.04683 10.9679 -1.17767 -0.777644 11.8512 -0.841662 1.70182 9.51862 -0.919733 0.510811 8.37449 -1.04434 0.561424 7.28627 -1.22539 1.93214 6.9857 9.45788 -7.00338 0.872655 8.20349 -5.8976 0.228278 10.9058 -7.73557 1.02745 9.53535 -4.82072 1.63898 10.4362 -5.43688 2.38161 8.70248 -4.54743 2.77277 6.86306 -4.60662 0.628044 8.44793 -3.22633 3.21825 9.13073 -2.71708 4.44897 9.86424 -3.76137 5.2805 11.0278 -3.71292 5.30055 11.3135 -4.57984 5.70898 5.73241 -3.17758 4.19802 5.37606 -3.85513 3.0919 5.37236 -3.92054 1.70838 11.8596 -3.75478 5.854 11.5478 -2.63104 4.47947 11.7257 -9.20521 -2.01203 11.5805 -8.30293 -0.458861 10.7214 -8.63899 -2.00262 10.879 -8.05865 -4.98386 10.4959 -8.49834 -3.27873 11.8961 -7.67598 -4.35295 -7.43836 0.891155 2.4645 -8.76652 2.08061 2.72661 -7.13754 -0.18063 1.73711 -5.73498 0.711673 2.59403 4.52437 5.72113 -8.86643 2.91296 4.95121 -8.62541 3.52049 4.43091 -7.79548 4.84954 6.80677 -10.1279 4.5904 6.95136 -11.787 4.37302 8.34129 -10.7158 4.45387 5.61143 -12.9843 4.70961 7.53766 -12.7578 3.65093 5.09674 -13.9829 4.0458 10.1025 -9.96302 3.10774 11.5583 -9.46456 1.64045 11.9357 -8.94186 0.667342 11.488 -9.2883 -0.0995289 3.02221 -14.1411 1.22958 3.63496 -15.3303 -0.184434 2.06328 -13.1041 0.299464 0.559985 -12.1305 2.37016 3.83652 -14.8123 0.62002 0.821079 -11.0636 -0.502031 0.254949 -10.9027 0.408033 1.56648 -9.91941 0.326112 0.961971 -8.29285 1.36068 1.30597 -7.39103 2.64156 2.21766 -7.99721 0.0148736 -0.149735 -7.45159 -3.76801 1.24366 -8.4432 -2.56472 0.53837 -8.95104 -5.39276 0.660816 -8.34865 -5.14182 1.62383 -7.3241 -1.74719 0.106112 -9.67751 -3.65539 -0.295273 -3.44997 -3.03897 0.9689 -3.90779 -5.37276 -0.78318 -3.69519 -5.51844 -1.68951 -4.31774 -6.61505 -0.238408 -3.68752 -3.59518 1.95835 -5.0234 -4.7868 2.10948 -6.36666 -5.44612 3.04342 -6.24727 -4.6733 -2.71386 -3.45021 -3.69409 -2.83505 -1.94223 -2.60508 -2.34955 -0.470943 -5.21394 3.73439 -4.75481 -5.9368 3.86694 -3.09853 -6.04067 3.01885 -3.61811 -6.42561 4.24852 -1.46142 -6.73745 3.28591 -2.9524 -0.308895 -1.08077 0.227356 -1.4821 -1.62993 0.796606 -1.08985 -0.410833 1.51952 -4.90256 -0.117174 2.8521 -2.34322 0.945065 2.1312 -4.02116 1.16492 2.75068 -8.58188 0.682588 0.22855 -9.39193 0.377664 -1.35207 -9.45292 -0.799914 -0.446156 -9.0965 -0.120501 -2.65654 -9.05726 -1.25688 -3.77497 -7.78315 -0.18864 -3.08 -10.6411 -1.53981 -0.952562 -12.2783 -0.804165 -1.11333 -11.8816 -2.00342 -2.07035 -13.5571 -2.50079 -0.090309 

POINT_DATA 144
FIELD FieldData 1
normals 3 144 double
-0.329393 0.941624 0.0695951 -0.0868335 0.571752 0.815818 0.377036 0.483249 -0.790136 -0.903003 -0.429523 0.00976231 0.827615 0.532452 0.177618 -0.628132 0.700399 -0.338956 0.0399932 0.546974 0.836194 -0.0922487 -0.880331 -0.465304 0.977783 0.0492864 0.203744 -0.329386 0.820262 -0.467627 0.835997 0.22324 0.501272 0.601501 0.760201 0.24554 -0.190345 -0.557539 -0.808034 0.839887 -0.518345 0.160959 -0.315053 0.879863 0.355785 0.693413 -0.649969 0.310994 0.151356 0.974563 0.16528 0.862035 0.477161 0.170918 0.422629 0.906028 -0.0223271 0.646495 -0.650816 -0.398099 0.619093 0.730857 -0.287353 0.350123 0.577716 -0.737331 0.208146 0.442081 -0.872491 -0.449429 -0.778651 0.437854 0.665896 0.420723 0.616097 -0.605776 0.628331 0.488094 0.0900321 -0.107344 0.990137 -0.295147 0.955318 0.0159985 0.995834 0.0234175 -0.0881214 0.133378 -0.967549 0.214614 -0.705881 -0.233161 0.668855 0.458142 0.886051 0.0708496 -0.0481661 -0.959697 -0.276878 -0.583889 0.255901 0.770447 -0.342345 0.34896 -0.872369 0.663301 -0.390436 -0.638429 0.0177174 0.869834 -0.493027 -0.669156 0.179755 -0.721054 0.528431 0.806117 0.266337 -0.00340181 -0.290699 0.956808 -0.508945 0.229172 0.829732 -0.686873 -0.690079 -0.228027 -0.18049 0.524717 0.831923 -0.918333 0.143735 -0.368788 -0.313084 0.948779 -0.0423805 -0.419017 -0.0114526 0.907906 -0.348365 -0.389321 -0.852684 -0.418402 0.904459 -0.0830311 -0.0377664 -0.996794 0.0705311 -0.527701 0.230002 -0.817698 -0.795769 -0.600885 -0.0754271 -0.520108 0.575018 0.63154 -0.598178 -0.615988 -0.512583 0.473576 0.666601 -0.575646 -0.654635 0.704118 0.275083 0.714667 -0.263942 0.647755 -0.539716 0.841841 0.00337759 0.7333 -0.468253 -0.492961 0.0115663 0.27089 -0.962541 0.912379 -0.345263 -0.219905 -0.821302 0.544183 0.171252 -0.80072 0.449137 0.396388 0.566747 0.776916 0.274224 0.116051 -0.26767 0.956496 -0.61746 0.776612 0.124967 0.546113 0.825063 0.145025 0.83183 -0.0418604 0.553449 0.33733 -0.849069 -0.406558 -0.69368 0.171526 -0.699562 -0.689978 0.236939 0.683952 0.285716 -0.866924 0.408424 -0.0261011 0.25681 -0.966109 -0.203759 0.803173 0.559817 0.0586029 0.0991074 0.99335 -0.800567 -0.236952 -0.550406 0.192065 -0.0620828 0.979416 -0.575119 -0.377605 0.725709 0.825069 0.444753 -0.348507 0.863024 -0.314319 -0.395466 -0.465143 0.875133 -0.133359 -0.562202 -0.757467 -0.331924 0.840355 0.134837 0.524997 0.678421 0.529736 -0.509042 -0.932992 -0.240187 -0.268022 -0.325461 -0.760485 0.561905 -0.353255 0.5559 -0.752453 0.094113 -0.411312 -0.906623 -0.123266 0.978625 0.164615 -0.230641 -0.928609 -0.290672 0.0251058 0.997621 -0.0641989 -0.572301 0.413912 -0.707918 0.203953 -0.782628 -0.58813 -0.734103 0.673091 -0.0896765 -0.733191 -0.29568 0.612376 0.239917 0.152039 0.958814 -0.550621 -0.0988048 0.828887 0.77849 0.513941 -0.360304 0.465716 -0.860125 0.208072 0.0181817 -0.643173 0.765505 0.362089 -0.312377 0.878244 0.302374 0.904267 0.301448 -0.819676 0.338138 0.462379 -0.514361 -0.158868 0.84273 0.43244 -0.445638 0.783838 -0.602126 -0.789637 -0.117975 0.678755 0.122053 -0.724151 -0.743678 -0.666068 0.0574229 -0.811256 -0.213941 0.544144 0.392036 -0.919233 0.0362992 -0.813495 -0.368905 -0.449595 -0.562552 0.594109 0.574952 0.425487 0.486975 -0.762769 -0.898592 -0.317388 0.302981 -0.282173 0.946786 -0.154839 -0.818779 -0.17052 -0.5482 0.673099 -0.735806 -0.0743495 -0.423515 0.715292 0.555871 -0.274041 0.0426654 -0.960771 -0.917572 0.108461 -0.382488 0.258248 0.825481 0.501886 -0.172041 0.28855 -0.941881 0.807166 0.167361 0.566104 0.281847 0.31814 0.905179 -0.0260698 -0.134513 0.990569 -0.696785 0.267062 0.665709 -0.800657 -0.581027 0.146136 -0.207973 -0.114525 -0.971407 -0.103873 -0.848089 -0.519573 -0.332071 -0.14769 0.93162 0.841133 0.401476 0.36237 -0.448887 0.817625 0.360542 0.00794127 0.963683 0.266931 0.804482 -0.538273 -0.251137 -0.87346 -0.318415 0.368348 0.536721 0.540422 0.647978 -0.273334 0.235498 -0.932646 -0.334323 -0.942079 -0.026729 0.568761 -0.733664 -0.371818 0.529518 0.40272 0.746611 0.744587 0.665524 -0.0516479 -0.853833 0.202185 -0.479677 -0.783402 0.533458 0.31891 -0.386694 -0.665797 -0.638108 -0.338203 -0.246736 0.908152 