# vtk DataFile Version 4.0
Generated by libgran
ASCII
DATASET POLYDATA
POINTS 144 FLOAT
-2.93268 -6.83308 10.8454 -3.37612 -5.4364 11.8943 -3.07424 -4.39949 12.072 -4.40987 -5.38117 12.6753 -0.492941 -2.4677 10.4488 -1.91494 -2.21304 9.8767 -2.65154 -3.39032 12.2728 -2.59108 -2.27986 9.0185 -3.80636 -1.58586 6.907 -5.08142 -0.720033 6.29187 -3.48807 -3.25516 7.89689 -2.2414 -0.855612 7.51437 -5.53644 -0.282793 5.03958 -6.50082 -0.163395 4.0112 -7.62278 1.24544 4.29965 -5.02831 -1.42976 4.41952 -4.55125 -3.08098 4.4122 -3.50027 -1.71374 4.93525 -9.6401 -0.288527 5.07381 -9.41862 -1.81505 4.58825 -8.56753 1.3519 4.93572 -8.36955 -1.81399 3.49864 -7.71817 -0.678641 2.00537 -5.80042 -6.61058 12.8851 3.0259 -1.56098 6.81391 1.7685 -1.27146 6.70556 5.0652 -0.419607 5.25978 4.76395 0.798318 4.45202 5.98033 -0.203907 4.20326 5.04429 -1.15997 4.36832 4.42485 -0.966401 6.85303 5.06619 2.58928 4.80676 6.85455 -1.1469 3.69886 6.17207 3.2224 4.21639 5.29873 3.90827 4.18442 4.35856 4.7494 4.03841 5.10432 5.32382 2.9955 4.37372 4.72748 2.66295 5.73706 6.05584 -1.25814 6.2744 6.35761 0.0293426 5.71361 6.09576 1.7829 4.47049 5.6524 2.29529 5.03825 6.66746 3.52123 2.84539 5.32052 1.60227 1.71155 6.55226 1.32611 0.761875 -0.781936 8.16386 0.831117 -0.940922 6.37016 -0.0714681 0.0291157 9.07319 -0.625951 0.273367 11.988 -1.0636 1.60932 11.2412 -1.47357 -1.29655 11.7345 -1.01499 1.44574 9.76127 -1.06093 0.402731 8.47924 -1.15168 0.593775 7.40332 -1.29911 1.99746 7.30368 8.85804 -6.52673 0.0846517 7.71503 -5.23364 -0.397954 10.2304 -7.404 0.144517 9.09327 -4.51294 1.17342 9.92089 -5.30529 1.82904 8.25024 -4.34761 2.32051 6.47472 -3.91072 0.180576 8.08763 -3.07537 2.92343 8.80683 -2.77582 4.2014 9.36863 -4.02427 4.86899 10.5148 -4.15269 4.70634 10.7191 -5.07402 5.03715 5.3755 -2.96039 3.91302 4.98952 -3.42845 2.7124 5.01766 -3.27663 1.33597 11.4038 -4.34986 5.11971 11.0681 -3.11762 3.84758 10.981 -8.48095 -3.07089 10.8873 -7.80702 -1.40219 10.0393 -7.82084 -2.98806 10.3645 -6.93319 -5.87882 9.87561 -7.51261 -4.24396 11.4053 -6.77158 -5.1935 -7.25008 1.57047 2.38853 -8.58635 2.74979 2.65521 -6.91379 0.5522 1.60218 -5.55858 1.36323 2.60383 4.45402 5.56134 -8.75903 2.89439 4.69383 -8.50904 3.48747 4.32833 -7.59076 4.77241 6.5132 -10.1259 4.60482 6.43801 -11.8013 4.21799 7.92256 -10.9219 4.63764 4.96003 -12.8318 4.74562 6.91333 -12.8282 3.93425 4.27206 -13.8007 3.71283 9.72761 -10.4097 2.63863 11.1499 -10.144 1.11708 11.4637 -9.75023 0.209896 10.8893 -10.0887 0.349501 1.92332 -13.8858 1.69876 2.48693 -15.0766 0.281812 1.09863 -12.738 0.821737 -0.2279 -11.5587 2.79258 2.83047 -14.5331 1.04471 0.187431 -10.5161 -0.0335017 -0.457195 -10.3508 0.6918 1.04124 -9.4884 0.547368 0.618387 -7.80965 1.50727 1.13438 -6.90729 2.75124 2.05617 -7.57221 0.251944 -0.400259 -6.8528 -3.4666 0.579824 -8.15612 -2.20761 -0.105688 -8.54117 -5.06282 -0.0748348 -8.04666 -4.89479 1.00203 -7.12351 -1.33759 -0.566689 -9.18421 -3.38924 -0.365311 -3.00677 -2.84691 0.874344 -3.60413 -5.06554 -0.992463 -3.21714 -5.14196 -1.97625 -3.72365 -6.33793 -0.529208 -3.298 -3.43559 1.68537 -4.84053 -4.59467 1.60937 -6.21816 -5.30691 2.51155 -6.21857 -4.22734 -2.79884 -2.72216 -3.23166 -2.6206 -1.23071 -2.16581 -1.86455 0.139938 -5.15042 3.37298 -4.80711 -5.91742 3.64432 -3.18803 -5.96429 2.74048 -3.61333 -6.46347 4.17364 -1.61122 -6.68943 3.03938 -2.99299 0.00889662 -0.305234 0.61883 -1.08544 -0.908802 1.28229 -0.78206 0.396563 1.88779 -4.72555 0.521587 2.81404 -2.13515 1.69214 2.41141 -3.8643 1.81822 2.90311 -8.34226 1.02361 0.287536 -9.15014 0.292306 -1.14776 -9.04063 -0.660098 -0.0110906 -8.84133 -0.450156 -2.32693 -8.67848 -1.74477 -3.24413 -7.51195 -0.482837 -2.70174 -10.0944 -1.65015 -0.364589 -11.7974 -1.20579 -0.751927 -11.187 -2.52241 -1.38865 -12.9155 -2.79021 0.590043 

POINT_DATA 144
FIELD FieldData 1
normals 3 144 double
-0.317251 0.93259 0.172128 -0.126191 0.464092 0.876752 0.428072 0.572819 -0.699022 -0.907556 -0.408861 -0.0957879 0.82056 0.492685 0.28973 -0.601434 0.747345 -0.282405 -0.00537103 0.436349 0.899762 -0.0747114 -0.81417 -0.5758 0.968692 0.012417 0.247956 -0.306368 0.878246 -0.367182 0.822274 0.161124 0.545806 0.596268 0.717833 0.359415 -0.148653 -0.441006 -0.885108 0.815734 -0.560403 0.143268 -0.306226 0.848436 0.431719 0.656779 -0.705966 0.265055 0.179721 0.945256 0.272381 0.871259 0.421984 0.250672 0.434049 0.898449 0.0662613 0.655529 -0.628071 -0.419295 0.63852 0.741979 -0.204351 0.393537 0.629131 -0.670315 0.257841 0.506214 -0.822961 -0.482992 -0.820554 0.305631 0.67886 0.303083 0.668797 -0.578547 0.592603 0.56045 0.0797473 -0.255293 0.963569 -0.221495 0.962633 0.155815 0.994884 -0.0395922 -0.0929421 0.0588363 -0.995659 0.0721159 -0.720089 -0.291501 0.629682 0.523729 0.828333 0.198927 -0.120668 -0.903402 -0.411465 -0.582156 0.195215 0.789294 -0.291184 0.490648 -0.821265 0.648994 -0.350485 -0.675254 0.0967727 0.924912 -0.367659 -0.633834 0.32857 -0.700211 0.585608 0.716608 0.378862 -0.0482716 -0.414833 0.908616 -0.512516 0.152979 0.844941 -0.730606 -0.596342 -0.332552 -0.162849 0.418723 0.893393 -0.894494 0.264469 -0.360468 -0.239349 0.967266 0.08431 -0.428075 -0.103074 0.897846 -0.358832 -0.26206 -0.895859 -0.405268 0.914126 0.011487 -0.0520002 -0.997044 -0.0565662 -0.489644 0.338915 -0.803359 -0.795622 -0.572869 -0.196994 -0.538251 0.502499 0.676594 -0.584196 -0.54051 -0.605445 0.493446 0.731554 -0.470468 -0.640878 0.672131 0.370831 0.673249 -0.419383 0.608977 -0.469762 0.873701 0.126371 0.699153 -0.457889 -0.549111 0.0615147 0.411486 -0.909338 0.889136 -0.38087 -0.253722 -0.781511 0.576814 0.237751 -0.770554 0.44922 0.452159 0.618898 0.695427 0.365167 0.100303 -0.395877 0.912809 -0.461493 0.852579 0.245221 0.684674 0.724158 0.0825642 0.88896 -0.197163 0.413374 0.272382 -0.804758 -0.527421 -0.658364 0.336694 -0.673197 -0.686503 0.18487 0.703233 0.204285 -0.921321 0.330809 -0.131317 0.310912 -0.941323 -0.135934 0.728798 0.6711 0.0422681 -0.0548704 0.997598 -0.805742 -0.0686891 -0.58827 0.153147 -0.202512 0.96723 -0.642036 -0.376912 0.667628 0.887658 0.364123 -0.281919 0.882833 -0.293644 -0.366578 -0.453434 0.885674 -0.0998906 -0.546541 -0.724627 -0.419772 0.808673 0.0864043 0.581878 0.666086 0.520212 -0.534518 -0.893545 -0.347303 -0.28453 -0.300459 -0.712798 0.633753 -0.347692 0.431642 -0.832343 0.180102 -0.506828 -0.843024 -0.206725 0.977726 0.0362919 -0.147279 -0.971156 -0.187526 -0.0393007 0.982146 -0.183969 -0.556115 0.283193 -0.781369 0.298436 -0.827317 -0.475902 -0.775767 0.594999 -0.210146 -0.745782 -0.281249 0.603911 0.161403 0.293103 0.942359 -0.587498 -0.0407956 0.808197 0.761765 0.522807 -0.382606 0.519809 -0.783901 0.339555 0.0201162 -0.542625 0.839734 0.332051 -0.179263 0.926071 0.202853 0.957956 0.202906 -0.875355 0.31333 0.36821 -0.555759 -0.104148 0.824794 0.411326 -0.318705 0.853954 -0.548579 -0.834696 -0.0484121 0.695391 0.087097 -0.713334 -0.706749 -0.699941 0.102898 -0.817717 -0.198312 0.540381 0.441278 -0.883824 0.155332 -0.778498 -0.456346 -0.430917 -0.610467 0.620516 0.49223 0.428736 0.422824 -0.798377 -0.882513 -0.339455 0.325486 -0.340182 0.9002 -0.271874 -0.793786 -0.287696 -0.535849 0.717358 -0.696087 0.0293363 -0.478606 0.750951 0.454982 -0.2485 -0.0891764 -0.964518 -0.910582 0.0131755 -0.413118 0.198344 0.889004 0.412712 -0.197268 0.126509 -0.972153 0.798409 0.304757 0.519294 0.267445 0.451288 0.851359 -0.0418539 -0.0275694 0.998743 -0.725143 0.298903 0.620343 -0.772019 -0.604935 0.195042 -0.179089 -0.230423 -0.956469 -0.0468761 -0.903837 -0.4253 -0.281413 -0.0991089 0.954455 0.812922 0.50446 0.290994 -0.509544 0.800906 0.314508 -0.0243579 0.928049 0.37166 0.843549 -0.494669 -0.209113 -0.885601 -0.368585 0.282589 0.48272 0.726104 0.489647 -0.325159 -0.00520141 -0.945645 -0.215647 -0.957605 0.19102 0.633965 -0.737261 -0.233528 0.471107 0.557356 0.683676 0.695418 0.70458 -0.141283 -0.838121 -0.0324479 -0.544519 -0.864838 0.476812 0.157181 -0.254465 -0.839813 -0.479544 -0.36448 -0.080956 0.927686 