# vtk DataFile Version 4.0
Generated by libgran
ASCII
DATASET POLYDATA
POINTS 144 FLOAT
-2.56623 -6.3606 11.8177 -2.9809 -4.83826 12.6884 -2.69097 -3.78297 12.7023 -3.96872 -4.68774 13.5149 -0.245268 -2.07087 10.6753 -1.70258 -1.90867 10.1613 -2.27396 -2.75228 12.7367 -2.42554 -2.09721 9.36131 -3.68769 -1.67972 7.16251 -4.99853 -0.914717 6.49146 -3.35333 -3.20773 8.40228 -2.10838 -0.865473 7.60302 -5.52362 -0.660364 5.2163 -6.55845 -0.707928 4.25259 -7.7169 0.687548 4.4461 -5.01956 -1.86925 4.72362 -4.47134 -3.49127 4.87422 -3.46183 -2.03464 5.20076 -9.68694 -0.801502 5.40922 -9.46119 -2.35893 5.03702 -8.64978 0.836654 5.09106 -8.46896 -2.43327 3.89784 -7.91957 -1.41705 2.2827 -5.31967 -5.8915 13.9785 3.2471 -1.49909 6.88142 1.9756 -1.29396 6.74781 5.23783 -0.513727 5.16799 4.85261 0.541136 4.18543 6.14634 -0.388017 4.09142 5.28566 -1.37916 4.39857 4.61796 -0.843377 6.82768 5.0105 2.3835 4.25968 7.09752 -1.32427 3.73559 6.0518 3.01193 3.55745 5.12406 3.61357 3.45028 4.1168 4.34875 3.21012 4.79812 4.82251 2.07647 4.11338 4.12914 1.85204 5.31814 4.98244 -2.25655 5.83972 5.50718 -1.0359 5.32492 5.45587 0.750258 4.12949 4.99576 1.35334 4.6312 6.21882 2.40598 2.52656 4.44126 0.75793 1.29284 5.52779 0.337906 0.945586 -0.667394 8.13563 1.02244 -1.05872 6.37825 0.105971 0.231802 8.9515 -0.334242 0.856145 11.8326 -0.824831 2.07443 10.9331 -1.16742 -0.741676 11.8453 -0.832169 1.71624 9.48708 -0.909577 0.516338 8.35225 -1.03523 0.560656 7.26387 -1.21909 1.92903 6.95445 9.50421 -7.03544 0.929818 8.24774 -5.93805 0.275256 10.9543 -7.76169 1.0923 9.57396 -4.84647 1.68054 10.4753 -5.45474 2.42904 8.73861 -4.56713 2.81103 6.90283 -4.64812 0.663219 8.47979 -3.24404 3.24807 9.15801 -2.72572 4.47754 9.89531 -3.76029 5.31781 11.0584 -3.70448 5.3471 11.3462 -4.56864 5.75987 5.76172 -3.1958 4.22055 5.40942 -3.88262 3.11886 5.40824 -3.95847 1.73588 11.886 -3.73983 5.90731 11.5782 -2.62128 4.52764 11.7851 -9.24944 -1.93546 11.6337 -8.33701 -0.388831 10.7785 -8.6871 -1.93171 10.937 -8.12167 -4.91576 10.5539 -8.55415 -3.20879 11.951 -7.72988 -4.28551 -7.45303 0.855477 2.46126 -8.78189 2.04345 2.7266 -7.15367 -0.217728 1.73536 -5.74876 0.679334 2.58342 4.51256 5.73311 -8.87834 2.89873 4.96839 -8.63692 3.50727 4.43885 -7.81361 4.83749 6.82722 -10.1325 4.57251 6.98604 -11.7894 4.36529 8.36837 -10.7064 4.42583 5.65614 -12.9966 4.69012 7.5795 -12.7561 3.61697 5.15248 -13.9961 4.0486 10.125 -9.93847 3.11877 11.5807 -9.42484 1.65519 11.9603 -8.89336 0.678568 11.52 -9.23944 -0.142258 3.09384 -14.1566 1.18492 3.71074 -15.3458 -0.227593 2.12689 -13.1272 0.253539 0.613833 -12.1674 2.32815 3.90386 -14.8305 0.579718 0.865071 -11.0998 -0.54422 0.302771 -10.9386 0.375891 1.60239 -9.94896 0.298085 0.985776 -8.32674 1.3372 1.31887 -7.42606 2.61979 2.23024 -8.0291 -0.0139694 -0.131564 -7.49328 -3.79905 1.28434 -8.46151 -2.5992 0.579233 -8.97771 -5.42513 0.705242 -8.36678 -5.16893 1.66044 -7.33624 -1.7851 0.149788 -9.70967 -3.67979 -0.290475 -3.47932 -3.06026 0.974822 -3.92978 -5.39923 -0.771484 -3.72367 -5.54896 -1.67319 -4.35194 -6.63995 -0.223256 -3.7094 -3.61583 1.97403 -5.03698 -4.81021 2.13826 -6.37624 -5.46654 3.07322 -6.24862 -4.70575 -2.70668 -3.49341 -3.72521 -2.8419 -1.98749 -2.63344 -2.36922 -0.514068 -5.22902 3.75297 -4.75186 -5.9479 3.87597 -3.09312 -6.05537 3.03186 -3.61841 -6.43205 4.24746 -1.4523 -6.74993 3.29626 -2.94932 -0.332327 -1.1129 0.18976 -1.50742 -1.66031 0.756808 -1.11121 -0.445254 1.48435 -4.91485 -0.147886 2.84186 -2.36011 0.911848 2.10247 -4.03452 1.13413 2.7306 -8.60177 0.664474 0.221956 -9.41248 0.380792 -1.36228 -9.4802 -0.806096 -0.469084 -9.11877 -0.104799 -2.67187 -9.08645 -1.23211 -3.79966 -7.80682 -0.173915 -3.09949 -10.6741 -1.53362 -0.979837 -12.308 -0.787357 -1.12516 -11.9216 -1.97728 -2.09793 -13.5917 -2.48912 -0.117064 

POINT_DATA 144
FIELD FieldData 1
normals 3 144 double
-0.329686 0.942141 0.0606347 -0.0849812 0.580191 0.810035 0.374905 0.475107 -0.796065 -0.902837 -0.429667 0.0164921 0.827972 0.534485 0.169671 -0.629336 0.696686 -0.344333 0.0421112 0.555578 0.830397 -0.0936243 -0.885233 -0.455629 0.978453 0.0519849 0.19982 -0.332389 0.816984 -0.471228 0.834168 0.22528 0.503401 0.600859 0.762258 0.240689 -0.192699 -0.562631 -0.803936 0.842127 -0.515067 0.159773 -0.316332 0.880409 0.353291 0.69676 -0.646252 0.311263 0.148545 0.975767 0.160664 0.860965 0.480858 0.165875 0.420616 0.906852 -0.0264939 0.646368 -0.650577 -0.398695 0.616543 0.731304 -0.291667 0.345862 0.576239 -0.740492 0.203522 0.43998 -0.874641 -0.448121 -0.774098 0.44717 0.663492 0.426316 0.614845 -0.608005 0.631455 0.481243 0.0875024 -0.100248 0.991107 -0.297719 0.954615 0.008545 0.996015 0.0254627 -0.08547 0.135329 -0.965681 0.221689 -0.707372 -0.229402 0.66858 0.455615 0.887748 0.0657085 -0.0448385 -0.961716 -0.270355 -0.585683 0.259317 0.767938 -0.342055 0.34232 -0.875109 0.665213 -0.39286 -0.634943 0.016106 0.866623 -0.498703 -0.668628 0.173247 -0.723133 0.52569 0.809322 0.262006 -0.00410634 -0.284576 0.958645 -0.510697 0.233265 0.827512 -0.684734 -0.693376 -0.22443 -0.183025 0.529685 0.828212 -0.918197 0.138881 -0.37098 -0.315523 0.94765 -0.0490441 -0.422009 -0.00489325 0.906578 -0.345158 -0.396217 -0.85081 -0.417606 0.904089 -0.090709 -0.0372834 -0.996116 0.0797656 -0.527873 0.222165 -0.819752 -0.795898 -0.601705 -0.0670635 -0.520535 0.58035 0.626289 -0.597943 -0.619553 -0.508545 0.472295 0.663871 -0.579838 -0.656164 0.704502 0.270418 0.71432 -0.257125 0.650872 -0.542151 0.840273 -0.00368991 0.735799 -0.469121 -0.488391 0.0123273 0.26387 -0.96448 0.913641 -0.344404 -0.215978 -0.823022 0.543208 0.16601 -0.802759 0.449652 0.391652 0.564207 0.779878 0.271035 0.114009 -0.261558 0.958431 -0.623297 0.773007 0.118156 0.539751 0.828812 0.147441 0.827596 -0.0353447 0.56021 0.340731 -0.85096 -0.399711 -0.693023 0.164143 -0.701981 -0.691834 0.239996 0.681005 0.287844 -0.864158 0.412768 -0.0199351 0.254389 -0.966896 -0.207876 0.806222 0.55389 0.0564707 0.106204 0.99274 -0.798668 -0.243886 -0.550136 0.190993 -0.0556536 0.980012 -0.574053 -0.376836 0.726951 0.823079 0.447439 -0.349769 0.86175 -0.313864 -0.398593 -0.467103 0.874105 -0.133253 -0.562383 -0.759341 -0.327302 0.842522 0.137721 0.520759 0.678718 0.530775 -0.507562 -0.935112 -0.233946 -0.266149 -0.326574 -0.763487 0.557169 -0.353788 0.56334 -0.746648 0.08881 -0.404525 -0.910204 -0.118411 0.97781 0.172819 -0.235494 -0.925377 -0.297019 0.0287986 0.99799 -0.0564572 -0.573365 0.421722 -0.702426 0.198282 -0.778815 -0.595089 -0.731546 0.676908 -0.0814638 -0.732034 -0.297354 0.612949 0.244586 0.142928 0.959036 -0.54803 -0.103137 0.830076 0.779149 0.513769 -0.359122 0.462694 -0.863807 0.199378 0.0184382 -0.649253 0.760349 0.364079 -0.320649 0.874432 0.307741 0.900491 0.307265 -0.816197 0.338191 0.468455 -0.511568 -0.163168 0.843608 0.433762 -0.45345 0.77861 -0.605355 -0.78654 -0.122065 0.677236 0.124829 -0.7251 -0.745816 -0.66389 0.0548478 -0.810429 -0.215516 0.544754 0.389416 -0.920619 0.028559 -0.815652 -0.363577 -0.450026 -0.559449 0.591626 0.580514 0.424685 0.491174 -0.76052 -0.898889 -0.316496 0.303032 -0.279361 0.948801 -0.147428 -0.82055 -0.164513 -0.547388 0.670822 -0.737195 -0.0808808 -0.420165 0.712741 0.56166 -0.276206 0.050409 -0.959776 -0.91817 0.113815 -0.379487 0.261839 0.821148 0.507105 -0.172387 0.296296 -0.93941 0.808155 0.161082 0.566514 0.28361 0.311594 0.906904 -0.0243208 -0.141398 0.989654 -0.694561 0.264399 0.669088 -0.802033 -0.579711 0.143799 -0.210406 -0.107087 -0.971731 -0.107473 -0.84411 -0.525289 -0.332672 -0.150098 0.931021 0.842416 0.397314 0.363973 -0.446215 0.817745 0.363573 0.00860719 0.964942 0.262321 0.802682 -0.539357 -0.254547 -0.871723 -0.317075 0.373581 0.539172 0.530606 0.654027 -0.271536 0.246924 -0.930213 -0.339261 -0.939964 -0.0370135 0.565242 -0.732516 -0.379371 0.532919 0.394795 0.748421 0.746708 0.663399 -0.0482493 -0.854659 0.212437 -0.47374 -0.77921 0.533829 0.328418 -0.392865 -0.656097 -0.644356 -0.33586 -0.255677 0.906547 