# vtk DataFile Version 4.0
Generated by libgran
ASCII
DATASET POLYDATA
POINTS 144 FLOAT
-2.57534 -6.08351 12.5134 -3.00457 -4.45887 13.1644 -2.72388 -3.40972 13.0287 -3.99093 -4.20188 13.966 -0.302129 -1.98982 10.7551 -1.76736 -1.9036 10.2453 -2.3105 -2.38301 12.9175 -2.50316 -2.20373 9.49252 -3.49461 -1.98384 6.9808 -4.85817 -1.29923 6.32822 -3.37365 -3.40188 8.58676 -1.93558 -1.09902 7.35199 -5.45156 -1.12854 5.06917 -6.55082 -1.28967 4.19308 -7.78875 0.0296754 4.4248 -4.90152 -2.32117 4.58616 -4.20588 -3.88839 4.70475 -3.31822 -2.34876 5.00321 -9.58905 -1.54612 5.56754 -9.30731 -3.09528 5.19901 -8.68401 0.141525 5.12796 -8.43151 -3.1387 3.96658 -8.11486 -2.13102 2.28506 -5.33073 -5.33707 14.6027 3.5821 -1.65599 7.24035 2.33571 -1.51515 6.91889 5.80314 -0.799164 5.76006 5.52165 0.116462 4.61596 6.86399 -0.719621 4.82814 6.02241 -1.73409 5.11113 4.93787 -0.973534 7.33116 5.56264 1.96283 4.49768 7.91554 -1.59458 4.63684 6.64782 2.59413 3.86824 5.70805 3.11384 3.58383 4.70066 3.75017 3.14451 5.49577 4.15694 2.06001 4.88633 3.39901 1.82738 6.57898 3.93383 -2.17054 6.8962 4.60869 -0.953436 6.15395 4.69257 0.749514 4.91816 4.21168 1.24554 5.20877 5.56379 2.21661 3.4402 3.49148 0.518679 2.21229 4.44327 -0.163491 1.11286 -0.825256 8.10558 1.42921 -1.36047 6.41416 0.177621 0.119332 8.74763 -0.383529 1.07021 11.5293 -0.843456 2.16934 10.4737 -1.2125 -0.514923 11.7474 -0.779894 1.65037 9.07869 -0.791539 0.351278 8.05603 -0.884006 0.330609 6.96362 -1.11132 1.66057 6.53757 10.7724 -7.39922 2.53494 9.41405 -6.54516 1.73691 12.2703 -7.99139 2.78454 10.6618 -5.11498 2.93507 11.6454 -5.52368 3.71482 9.84273 -4.75982 4.05618 7.9524 -5.33736 1.90423 9.46953 -3.43175 4.38099 10.0978 -2.74547 5.55337 10.9861 -3.56182 6.48325 12.1149 -3.30793 6.61673 12.5063 -4.1095 7.06874 6.5786 -3.53465 5.19574 6.30802 -4.39029 4.19363 6.36763 -4.6396 2.8325 12.8813 -3.20037 7.25008 12.5162 -2.15309 5.82908 13.1149 -10.0356 0.103261 12.9412 -8.8279 1.42941 12.0675 -9.55823 0.0374492 12.0235 -9.51206 -3.00296 11.7674 -9.66944 -1.22613 13.0098 -8.90487 -2.51551 -7.74405 0.162014 2.37991 -9.08845 1.29075 2.78741 -7.47474 -0.908009 1.63773 -6.03019 0.0728593 2.3077 4.28933 5.931 -10.1861 2.51595 5.792 -9.89747 2.90302 4.9205 -9.24996 4.96467 7.05355 -11.2629 4.7245 7.63244 -12.8274 5.10071 8.74211 -11.5031 4.04111 6.72318 -14.2252 5.02255 8.32599 -13.6822 3.06332 6.76401 -15.1994 5.50888 10.2956 -10.4096 5.22744 11.8547 -9.55082 4.04136 12.6322 -8.80423 2.95894 12.6789 -9.11015 -2.43848 4.53678 -14.9138 -1.37588 5.26912 -16.2888 -2.34837 3.4701 -13.9886 -1.74524 1.85469 -13.304 -0.147926 5.42241 -16.0088 -1.20443 1.98283 -12.3038 -2.29583 1.4276 -11.9783 -1.14678 2.59507 -11.0663 -0.922573 1.81697 -9.52934 0.291071 2.041 -8.83738 1.49344 2.94724 -9.59389 -1.1029 0.63269 -8.75125 -5.07609 2.1399 -8.90899 -3.96009 1.5094 -9.65749 -6.67139 1.52474 -8.6539 -6.28181 2.37864 -7.57726 -3.28038 1.1623 -10.5522 -4.42576 -0.026749 -4.17493 -3.82246 1.27284 -4.54207 -6.17245 -0.4577 -4.27938 -6.4051 -1.27846 -4.98819 -7.39469 0.0900966 -4.06451 -4.4706 2.40558 -5.453 -5.8066 2.73713 -6.61589 -6.42613 3.65379 -6.30424 -5.55093 -2.4598 -4.36291 -4.50203 -2.87323 -2.95705 -3.32183 -2.66126 -1.49127 -6.01688 4.15309 -4.77388 -6.55927 4.08638 -3.04625 -6.73291 3.30874 -3.65051 -6.86633 4.26785 -1.33235 -7.35086 3.49643 -2.88703 -0.908767 -1.67153 -0.750124 -2.10507 -2.18497 -0.195799 -1.60754 -1.06614 0.618672 -5.15733 -0.720926 2.54115 -2.74203 0.301586 1.40975 -4.31966 0.559543 2.24166 -9.07554 0.293315 0.176426 -9.96925 0.367167 -1.3867 -10.1017 -0.954709 -0.718688 -9.75707 0.117721 -2.77588 -9.87835 -0.840099 -4.04539 -8.49879 0.0842763 -3.34552 -11.414 -1.48665 -1.17756 -12.9788 -0.639029 -0.894303 -12.8486 -1.60715 -2.1422 -14.243 -2.44744 -0.0626388 

POINT_DATA 144
FIELD FieldData 1
normals 3 144 double
-0.341852 0.937149 -0.0699132 -0.0873813 0.687494 0.720913 0.368076 0.361652 -0.856579 -0.898971 -0.430502 0.0807434 0.828231 0.554477 0.0811665 -0.637005 0.640697 -0.42864 0.0453071 0.665065 0.74541 -0.0987891 -0.940826 -0.324171 0.982939 0.096032 0.15687 -0.380616 0.780643 -0.495709 0.771706 0.257332 0.581592 0.576094 0.788786 0.214318 -0.212777 -0.60995 -0.763339 0.886482 -0.448816 0.112752 -0.351444 0.870532 0.344473 0.762823 -0.582679 0.280333 0.0671878 0.984542 0.161747 0.820477 0.555091 0.136719 0.361218 0.928967 -0.0808807 0.642955 -0.620191 -0.449413 0.54382 0.758682 -0.358694 0.232843 0.576772 -0.783018 0.0838091 0.430908 -0.898496 -0.440838 -0.704687 0.555948 0.557559 0.497929 0.664225 -0.688824 0.638772 0.34277 -0.0670523 0.0101615 0.997698 -0.348546 0.925788 -0.146398 0.993794 0.0897048 0.0657744 0.152212 -0.924765 0.348772 -0.798218 -0.184531 0.573408 0.389537 0.920582 0.0281171 0.057755 -0.964664 -0.257075 -0.695646 0.289286 0.657564 -0.244122 0.230427 -0.94197 0.763274 -0.405899 -0.502652 0.0318342 0.812675 -0.581846 -0.577607 0.054741 -0.814478 0.43312 0.868017 0.242804 -0.115902 -0.193161 0.974297 -0.626347 0.277045 0.728653 -0.609441 -0.757935 -0.232631 -0.318829 0.594174 0.738448 -0.868514 0.0377301 -0.494226 -0.359398 0.914062 -0.187945 -0.534028 0.0511246 0.843919 -0.217679 -0.484093 -0.847508 -0.401212 0.893463 -0.201874 -0.0328162 -0.980532 0.193596 -0.492743 0.118602 -0.862055 -0.796154 -0.604599 0.0244836 -0.556304 0.637575 0.53294 -0.567948 -0.661517 -0.489725 0.475481 0.640848 -0.602688 -0.702792 0.689116 0.176642 0.747298 -0.0745588 0.660293 -0.611063 0.779505 -0.137745 0.750604 -0.517612 -0.410698 -0.0481314 0.125506 -0.990925 0.935525 -0.283188 -0.211181 -0.867187 0.480667 0.130178 -0.850585 0.428296 0.305069 0.493988 0.847405 0.194631 0.134312 -0.161121 0.977753 -0.753908 0.655234 0.0478675 0.374976 0.909125 0.18134 0.766347 0.107559 0.633359 0.403985 -0.875792 -0.264167 -0.674566 0.0201494 -0.73794 -0.734178 0.26946 0.623197 0.391369 -0.801567 0.452018 0.0262708 0.245714 -0.968986 -0.25343 0.888858 0.381712 0.0796999 0.318892 0.944434 -0.794002 -0.41144 -0.447524 0.237715 0.142854 0.960773 -0.493877 -0.30023 0.816056 0.748568 0.464339 -0.473323 0.825626 -0.277917 -0.491023 -0.518781 0.850817 -0.0835279 -0.556316 -0.792105 -0.251161 0.888235 0.188763 0.418816 0.811146 0.32918 -0.483407 -0.962236 0.190181 -0.194762 -0.575167 -0.681319 0.452755 -0.135808 0.793376 -0.59339 -0.104365 -0.214484 -0.971136 0.271842 0.895177 0.353215 -0.579025 -0.694785 -0.426618 0.402416 0.908035 0.116338 -0.398765 0.735618 -0.547587 -0.136333 -0.658318 -0.740291 -0.417778 0.900791 0.118478 -0.768294 -0.123326 0.628105 0.314128 -0.170083 0.934021 -0.370468 -0.179165 0.911402 0.692135 0.553178 -0.46362 0.460579 -0.887511 0.0138324 0.142554 -0.727901 0.6707 0.535822 -0.399885 0.743631 0.398261 0.856043 0.329514 -0.69314 0.300814 0.655033 -0.340614 -0.243805 0.908042 0.564822 -0.534292 0.628895 -0.648822 -0.758323 -0.0630636 0.553549 0.147914 -0.819576 -0.745154 -0.64999 0.149193 -0.72771 -0.282711 0.62491 0.38829 -0.913212 -0.123592 -0.867591 -0.332445 -0.369818 -0.478013 0.521452 0.706818 0.291415 0.566115 -0.771098 -0.868667 -0.335447 0.364544 -0.265368 0.964144 -0.00259931 -0.87802 -0.0955044 -0.468999 0.645366 -0.725253 -0.239812 -0.344225 0.643301 0.683866 -0.382769 0.168596 -0.90833 -0.953229 0.162958 -0.254558 0.333691 0.753697 0.566208 -0.208809 0.456092 -0.865089 0.840088 0.0426607 0.54077 0.340107 0.169313 0.925019 0.0755594 -0.254395 0.964144 -0.617951 0.187684 0.763486 -0.791581 -0.589955 0.159226 -0.310898 0.00622058 -0.950423 -0.17363 -0.777639 -0.60426 -0.319641 -0.206459 0.924773 0.87666 0.306979 0.370447 -0.379135 0.81185 0.444023 0.0153774 0.982548 0.18537 0.755349 -0.555878 -0.347055 -0.822287 -0.297921 0.484857 0.60748 0.359267 0.708445 -0.286231 0.43312 -0.854681 -0.41865 -0.888756 -0.186669 0.498408 -0.682566 -0.534503 0.619682 0.275254 0.735003 0.759873 0.649121 -0.0351301 -0.893638 0.356815 -0.272204 -0.671246 0.490806 0.555462 -0.541018 -0.477318 -0.692436 -0.218072 -0.428701 0.876732 