# vtk DataFile Version 4.0
Generated by libgran
ASCII
DATASET POLYDATA
POINTS 144 FLOAT
-2.63109 -6.44595 10.98 -3.10093 -5.01243 11.9658 -2.82895 -3.95935 12.0881 -4.1252 -4.95012 12.7586 -0.335403 -2.02677 10.3298 -1.77389 -1.85099 9.76933 -2.43832 -2.92783 12.2321 -2.46136 -1.98592 8.9283 -3.75817 -1.44366 6.82907 -5.08723 -0.655744 6.22356 -3.34484 -3.05198 7.88104 -2.20864 -0.625025 7.35826 -5.58489 -0.280705 4.96732 -6.55729 -0.22078 3.94132 -7.71133 1.17015 4.18695 -5.05262 -1.43645 4.38496 -4.55336 -3.07921 4.46388 -3.5044 -1.66976 4.86464 -9.68509 -0.384047 5.03033 -9.42838 -1.92197 4.60139 -8.65397 1.27596 4.82625 -8.38117 -1.93669 3.5101 -7.75836 -0.842788 1.97431 -5.47335 -6.21034 13.0475 2.99086 -1.26843 6.52845 1.73001 -0.983082 6.45464 4.96132 -0.172119 4.85627 4.64296 1.02328 4.02187 5.83094 -0.00745436 3.75315 4.88843 -0.941247 3.99233 4.3871 -0.667383 6.49103 4.9888 2.8189 4.30626 6.66649 -0.98161 3.24248 6.09001 3.40563 3.66171 5.22952 4.10737 3.62581 4.30092 4.95977 3.47129 5.02874 5.47911 2.38761 4.27901 4.88418 2.09783 5.55268 6.03087 -1.90451 6.13529 6.3728 -0.647108 5.61913 6.19175 1.1302 4.38241 5.79213 1.6917 5.00066 6.84315 2.86165 2.73375 5.4643 1.05467 1.615 6.70551 0.760015 0.782509 -0.430539 7.92993 0.777354 -0.672421 6.14418 -0.0410466 0.406906 8.82413 -0.539338 0.781125 11.7344 -1.03766 2.06299 10.9328 -1.33699 -0.826601 11.5721 -1.01519 1.82622 9.46218 -1.05421 0.719206 8.23474 -1.18738 0.863823 7.15601 -1.38415 2.25904 7.02702 8.46451 -6.5088 -0.228187 7.3396 -5.20323 -0.719627 9.81205 -7.4243 -0.176485 8.77457 -4.48024 0.789199 9.60004 -5.26954 1.45118 7.9606 -4.26218 1.94839 6.14678 -3.8347 -0.147336 7.83822 -2.95484 2.48171 8.63375 -2.60431 3.7001 9.13034 -3.87032 4.38601 10.2018 -4.11192 3.99845 10.418 -5.0087 4.38453 5.17037 -2.76124 3.58412 4.73944 -3.25081 2.40761 4.73652 -3.13401 1.02748 11.1467 -4.34091 4.23256 10.6127 -3.2209 2.92498 10.4328 -8.62972 -3.37298 10.4122 -7.89837 -1.7261 9.51945 -7.93137 -3.28693 9.81398 -7.23526 -6.23297 9.33927 -7.69089 -4.55531 10.8832 -7.10383 -5.58603 -7.34894 1.43119 2.27043 -8.71539 2.58529 2.49041 -6.98586 0.392185 1.52414 -5.65299 1.27556 2.49408 4.62713 5.41826 -7.73013 3.06033 4.53202 -7.64511 3.58802 4.11585 -6.70867 5.03642 6.44926 -9.01279 4.99137 6.47117 -10.6975 4.53031 7.90064 -9.76429 5.10597 5.05688 -11.8084 5.20814 7.00633 -11.6809 4.47849 4.42887 -12.8661 3.97501 9.67094 -9.18689 2.87341 11.0717 -8.9191 1.3244 11.3563 -8.62213 0.453386 10.7925 -9.05907 0.915307 2.09689 -13.3546 2.34766 2.72695 -14.407 0.775247 1.2174 -12.2551 1.24499 -0.158796 -11.103 3.3978 3.03528 -13.7652 1.374 0.207486 -10.0267 0.300222 -0.463604 -9.98156 0.920845 1.00219 -8.99091 0.646142 0.46887 -7.36058 1.54456 0.910829 -6.36086 2.83465 1.85871 -6.88667 0.267633 -0.601082 -6.49316 -3.26428 0.466648 -7.96086 -1.98631 -0.205488 -8.30476 -4.86929 -0.175444 -7.97186 -4.74155 0.846568 -6.9823 -1.08181 -0.640662 -8.91751 -3.41867 -0.72013 -2.82319 -2.86423 0.539415 -3.36527 -5.08072 -1.36222 -3.09312 -5.13651 -2.34832 -3.59784 -6.35004 -0.90178 -3.22328 -3.39821 1.40085 -4.59237 -4.48476 1.39939 -6.02992 -5.18869 2.30798 -6.01701 -4.20842 -3.11373 -2.56392 -3.20501 -2.82692 -1.09475 -2.1531 -1.96401 0.222526 -5.09056 3.08562 -4.55263 -5.92638 3.26743 -2.95523 -5.95746 2.38988 -3.43371 -6.53884 3.70801 -1.37553 -6.70797 2.65654 -2.82904 -0.0370217 -0.297495 0.588321 -1.09846 -0.907233 1.29797 -0.841411 0.440161 1.82817 -4.79345 0.467581 2.7283 -2.24011 1.70872 2.29502 -3.97416 1.79318 2.77827 -8.42466 0.774982 0.192071 -9.21211 -0.0316878 -1.2139 -9.08002 -0.936142 -0.041048 -8.89197 -0.820015 -2.3598 -8.68827 -2.11969 -3.26157 -7.54731 -0.854006 -2.6753 -10.0679 -1.98651 -0.410431 -11.7583 -1.64133 -0.93092 -11.0467 -2.95294 -1.46456 -12.8939 -3.21925 0.40397 

POINT_DATA 144
FIELD FieldData 1
normals 3 144 double
-0.341236 0.93081 0.130959 -0.128606 0.502704 0.854839 0.400585 0.550375 -0.732543 -0.895663 -0.440389 -0.0620084 0.806995 0.53488 0.250323 -0.631494 0.710659 -0.310129 -0.00995053 0.481153 0.87658 -0.0559781 -0.845584 -0.5309 0.974083 0.0625797 0.217361 -0.354971 0.850493 -0.388146 0.827503 0.220479 0.51636 0.575454 0.756053 0.311826 -0.142689 -0.475454 -0.868092 0.829718 -0.535379 0.157915 -0.324321 0.85555 0.403546 0.674957 -0.680289 0.285728 0.175693 0.962478 0.206807 0.873267 0.446978 0.193947 0.412798 0.910272 0.031668 0.669503 -0.627647 -0.397272 0.618317 0.749737 -0.235751 0.377711 0.612919 -0.69402 0.245099 0.480986 -0.841771 -0.452481 -0.819836 0.350899 0.702719 0.330229 0.630187 -0.558139 0.615576 0.55637 0.119291 -0.224448 0.967157 -0.199067 0.970952 0.132757 0.988909 -0.0597834 -0.135961 0.0464013 -0.993576 0.103213 -0.693513 -0.270817 0.667606 0.544908 0.824671 0.151635 -0.153351 -0.914372 -0.374708 -0.556295 0.237942 0.79619 -0.304189 0.463792 -0.832085 0.624407 -0.388612 -0.677567 0.103404 0.90795 -0.406121 -0.646324 0.313026 -0.695903 0.611773 0.718277 0.33138 -0.0291603 -0.376352 0.926018 -0.486995 0.195305 0.851288 -0.749727 -0.594925 -0.289782 -0.131478 0.456091 0.880167 -0.898932 0.267089 -0.347253 -0.219822 0.974121 0.0525986 -0.389358 -0.0630327 0.918927 -0.394513 -0.304915 -0.866826 -0.434198 0.900478 -0.024727 -0.0191396 -0.999797 -0.00631174 -0.517465 0.282068 -0.807878 -0.778515 -0.60793 -0.156 -0.539942 0.518837 0.662775 -0.578969 -0.588178 -0.564661 0.445801 0.732794 -0.514076 -0.642574 0.662425 0.385086 0.678807 -0.417688 0.603951 -0.446107 0.88788 0.112511 0.668731 -0.497815 -0.552249 0.0498683 0.382142 -0.922757 0.87534 -0.407157 -0.260774 -0.764103 0.600204 0.236438 -0.746713 0.480648 0.45978 0.641729 0.707139 0.29688 0.153798 -0.356615 0.921505 -0.342798 0.909389 0.235587 0.728675 0.667784 -0.151977 0.944858 -0.22899 0.234107 0.235543 -0.826419 -0.511421 -0.666474 0.336853 -0.665088 -0.663549 0.220051 0.715039 0.216182 -0.896775 0.386084 -0.317833 0.223234 -0.921493 -0.0891857 0.755101 0.649514 0.0685703 -0.0237482 0.997364 -0.824189 -0.0567495 -0.563464 0.169308 -0.158405 0.97275 -0.644011 -0.297226 0.704916 0.899913 0.289839 -0.325806 0.890483 -0.285015 -0.354691 -0.475967 0.869084 -0.134713 -0.527398 -0.753988 -0.391604 0.80547 0.129387 0.57834 0.699032 0.552849 -0.453555 -0.867773 -0.33339 -0.368539 -0.340076 -0.749558 0.5679 -0.28974 0.478153 -0.829108 0.244684 -0.456243 -0.855553 -0.216372 0.973222 0.0776062 -0.130078 -0.958049 -0.255387 -0.0279065 0.991401 -0.127849 -0.497401 0.330035 -0.80229 0.338926 -0.797078 -0.499796 -0.762678 0.603735 -0.232004 -0.786331 -0.319166 0.528977 0.084681 0.244601 0.965919 -0.645747 -0.0869937 0.758579 0.786601 0.543067 -0.293833 0.505687 -0.792493 0.340934 -0.0359488 -0.583703 0.811171 0.263545 -0.234731 0.935652 0.164967 0.949985 0.265168 -0.908815 0.278895 0.310278 -0.618125 -0.155286 0.770589 0.343422 -0.378031 0.859741 -0.554998 -0.819989 -0.139983 0.735095 0.127888 -0.665793 -0.721932 -0.691922 0.0076766 -0.846695 -0.218992 0.484923 0.431282 -0.891128 0.141022 -0.758315 -0.4231 -0.495928 -0.630576 0.598912 0.493637 0.473216 0.455953 -0.753773 -0.889261 -0.350561 0.293807 -0.334819 0.908984 -0.248282 -0.772789 -0.291529 -0.563745 0.716998 -0.694571 0.0590275 -0.496535 0.751968 0.433587 -0.199168 -0.0475464 -0.978811 -0.887375 0.0460867 -0.45874 0.183441 0.862497 0.471644 -0.211088 0.0708402 -0.974897 0.792326 0.357648 0.494274 0.259585 0.505263 0.822997 -0.0853083 -0.0848542 0.992735 -0.750511 0.266663 0.604668 -0.781597 -0.610886 0.12619 -0.138044 -0.173918 -0.975037 -0.0310862 -0.877549 -0.478478 -0.266395 -0.0582213 0.962104 0.795047 0.551516 0.252451 -0.537994 0.795878 0.277743 -0.0540732 0.937365 0.344126 0.860701 -0.472686 -0.189108 -0.873357 -0.388232 0.294148 0.463674 0.756528 0.461163 -0.323778 -0.0501422 -0.944803 -0.191679 -0.954597 0.228044 0.643926 -0.738185 -0.201103 0.440229 0.561488 0.700664 0.700732 0.704193 -0.114395 -0.796185 -0.0957673 -0.597427 -0.894229 0.440947 0.0769366 -0.182637 -0.870668 -0.456707 -0.423681 -0.0589236 0.903893 