# vtk DataFile Version 4.0
Generated by libgran
ASCII
DATASET POLYDATA
POINTS 144 FLOAT
-2.54248 -6.01288 12.5146 -2.95328 -4.3913 13.1849 -2.67136 -3.34221 13.0514 -3.92353 -4.13656 14.0066 -0.284549 -1.91301 10.7506 -1.75642 -1.81883 10.2617 -2.25681 -2.31603 12.9396 -2.50245 -2.11085 9.51583 -3.56385 -1.89364 7.04445 -4.91715 -1.20532 6.37465 -3.39507 -3.3028 8.6235 -1.99543 -1.01982 7.40186 -5.50169 -1.05027 5.10945 -6.59343 -1.2091 4.2236 -7.81304 0.132658 4.42129 -4.96724 -2.2614 4.65588 -4.30593 -3.83899 4.82339 -3.38633 -2.31059 5.07995 -9.67361 -1.39865 5.52735 -9.41286 -2.95592 5.1781 -8.72371 0.267406 5.10024 -8.50417 -3.02612 3.97097 -8.12042 -2.03776 2.29196 -5.25522 -5.27178 14.6601 3.50776 -1.59366 7.13723 2.25151 -1.45113 6.85767 5.66546 -0.726797 5.57051 5.34106 0.194071 4.44209 6.68833 -0.646615 4.59711 5.85576 -1.6598 4.90978 4.8638 -0.906711 7.17439 5.3827 2.04079 4.32963 7.72875 -1.52493 4.36476 6.44587 2.67082 3.66249 5.49783 3.19401 3.41425 4.47675 3.8343 3.01401 5.23265 4.24214 1.90222 4.613 3.48651 1.68996 6.1583 4.02831 -2.36566 6.52262 4.69877 -1.15937 5.84378 4.77987 0.569973 4.6257 4.30081 1.10965 4.95547 5.64928 2.07324 3.1201 3.58666 0.435475 1.87065 4.5437 -0.198558 1.06818 -0.752583 8.07887 1.33126 -1.29238 6.37979 0.154373 0.196367 8.7449 -0.348878 1.14291 11.5377 -0.827384 2.24524 10.4937 -1.17685 -0.441642 11.7637 -0.794188 1.72831 9.09689 -0.830723 0.428176 8.07614 -0.938689 0.398049 6.98537 -1.16025 1.72677 6.55247 10.5012 -7.33292 2.15425 9.12661 -6.46406 1.40132 12.0041 -7.93017 2.35731 10.4115 -5.05159 2.57779 11.4111 -5.47127 3.33099 9.62198 -4.69851 3.72054 7.67649 -5.25114 1.62309 9.26488 -3.36892 4.05703 9.92721 -2.68726 5.21327 10.8307 -3.51389 6.11909 11.9659 -3.27205 6.21625 12.3622 -4.07587 6.65986 6.41306 -3.46111 4.9666 6.10923 -4.31049 3.96871 6.12453 -4.55334 2.60518 12.7527 -3.17018 6.825 12.3552 -2.1254 5.41086 12.7795 -9.93081 -0.377093 12.6407 -8.74486 0.97264 11.7322 -9.44974 -0.410092 11.6209 -9.36183 -3.44788 11.4037 -9.54269 -1.6681 12.6213 -8.76673 -2.97434 -7.70886 0.248875 2.38024 -9.04265 1.40625 2.73943 -7.43883 -0.832133 1.65442 -5.99567 0.126402 2.35883 4.41785 5.81602 -9.88005 2.73092 5.39933 -9.40239 3.32047 4.61699 -8.79495 4.78434 7.00618 -11.0311 4.28492 7.49745 -12.564 4.62149 8.68792 -11.3006 3.60887 6.45309 -13.8678 4.37021 8.20675 -13.4529 2.53531 6.31026 -14.7245 4.89327 10.3153 -10.2742 4.46269 11.8337 -9.40433 3.25633 12.4355 -8.53766 2.15362 12.3029 -8.72163 -1.4961 4.43682 -14.5767 -0.313676 5.15326 -15.8592 -1.50976 3.35055 -13.6702 -1.01067 1.70328 -12.9778 0.896385 5.25441 -15.4913 -0.527631 1.79517 -11.9446 -1.65735 1.27837 -11.6955 -0.522506 2.38613 -10.6954 -0.423951 1.57445 -9.16267 0.763202 1.72882 -8.40851 2.04742 2.57607 -9.0957 -0.705804 0.396176 -8.40591 -4.58809 2.05338 -8.78281 -3.45589 1.39187 -9.47834 -6.21375 1.48914 -8.61742 -5.85405 2.32188 -7.51414 -2.73472 1.03174 -10.3346 -4.19864 -0.12188 -4.02837 -3.55516 1.16457 -4.37289 -5.9477 -0.5199 -4.20128 -6.16865 -1.34094 -4.91351 -7.16592 0.0545201 -4.0397 -4.1389 2.3099 -5.3112 -5.41438 2.66976 -6.53217 -6.02697 3.59973 -6.2474 -5.35098 -2.5235 -4.24332 -4.34699 -2.9248 -2.80162 -3.20427 -2.70178 -1.30803 -5.67435 4.08938 -4.69993 -6.29191 4.03476 -2.99729 -6.45761 3.26166 -3.60955 -6.66799 4.22272 -1.29791 -7.10322 3.46351 -2.87305 -0.803694 -1.71792 -0.519856 -2.01794 -2.21368 0.0110492 -1.53287 -1.086 0.820804 -5.14232 -0.68083 2.61701 -2.67669 0.3028 1.56002 -4.27646 0.585838 2.33989 -8.9733 0.35269 0.137357 -9.81805 0.403146 -1.45368 -9.97327 -0.907972 -0.769578 -9.56945 0.127479 -2.83182 -9.65963 -0.845311 -4.09251 -8.29295 0.0708003 -3.35739 -11.2689 -1.44521 -1.26784 -12.8411 -0.589281 -1.05991 -12.6659 -1.57978 -2.28453 -14.1414 -2.37986 -0.245442 

POINT_DATA 144
FIELD FieldData 1
normals 3 144 double
-0.339404 0.938914 -0.0569733 -0.0713922 0.682659 0.727241 0.353306 0.366437 -0.860755 -0.89886 -0.427919 0.0945295 0.830847 0.551559 0.0739977 -0.641021 0.645738 -0.414866 0.0612471 0.659744 0.748991 -0.105016 -0.937764 -0.331014 0.983455 0.0875083 0.158616 -0.369847 0.775829 -0.511178 0.787599 0.254182 0.56132 0.58497 0.786314 0.198796 -0.214686 -0.620773 -0.754023 0.877059 -0.461939 0.131828 -0.342546 0.879818 0.329519 0.749133 -0.590361 0.300454 0.0878293 0.987224 0.132943 0.831775 0.541174 0.123617 0.381783 0.920982 -0.0776762 0.64254 -0.636293 -0.426935 0.568124 0.74507 -0.349435 0.266145 0.566097 -0.780193 0.117605 0.422264 -0.898812 -0.432836 -0.707298 0.558913 0.581368 0.500567 0.641439 -0.674887 0.643091 0.361887 -0.0269809 0.00646271 0.999615 -0.351378 0.927331 -0.128805 0.995894 0.0866449 0.0262183 0.163318 -0.926542 0.33889 -0.774674 -0.186377 0.604271 0.393012 0.919388 0.0163456 0.0445243 -0.964965 -0.258574 -0.670167 0.289359 0.683482 -0.277882 0.233837 -0.93172 0.743196 -0.406444 -0.531472 0.0127058 0.814293 -0.580315 -0.606947 0.0586627 -0.792574 0.444735 0.865923 0.228886 -0.0804124 -0.195464 0.977409 -0.598425 0.276565 0.75193 -0.619653 -0.75563 -0.212258 -0.289882 0.592847 0.751333 -0.885955 0.0414831 -0.461912 -0.363486 0.915561 -0.172121 -0.508443 0.055459 0.859308 -0.245362 -0.484336 -0.839772 -0.405361 0.893491 -0.193276 -0.0314978 -0.980801 0.192452 -0.510004 0.121528 -0.851544 -0.79647 -0.603749 0.033518 -0.5432 0.638453 0.545263 -0.579734 -0.661682 -0.475485 0.471768 0.631555 -0.615283 -0.693326 0.697164 0.182377 0.763358 -0.0855002 0.640293 -0.611276 0.783362 -0.112633 0.739549 -0.511754 -0.437236 -0.0712371 0.132078 -0.988676 0.928353 -0.287593 -0.235478 -0.860746 0.485158 0.15407 -0.838843 0.429558 0.334399 0.503646 0.844431 0.182418 0.158684 -0.162771 0.97382 -0.744768 0.663851 0.0679914 0.390455 0.905689 0.165144 0.786792 0.101868 0.608754 0.393985 -0.874764 -0.282071 -0.697818 0.0253858 -0.715826 -0.713119 0.268239 0.647696 0.396336 -0.803821 0.443609 -0.0011243 0.240963 -0.970534 -0.241737 0.883015 0.402302 0.102985 0.302934 0.947431 -0.805574 -0.401949 -0.435301 0.259966 0.128139 0.957078 -0.477153 -0.309003 0.822704 0.74037 0.466952 -0.483538 0.834024 -0.297647 -0.464554 -0.499766 0.859728 -0.10537 -0.56399 -0.783361 -0.261269 0.879169 0.175175 0.443144 0.691533 0.444493 -0.569392 -0.995396 0.0278005 -0.0917279 -0.405845 -0.75454 0.515712 -0.325047 0.745665 -0.58166 -0.174369 -0.254394 -0.951251 0.162198 0.936076 0.312175 -0.501686 -0.789966 -0.352512 0.259655 0.963685 0.0623669 -0.571872 0.647136 -0.50416 -0.109581 -0.69132 -0.714191 -0.540156 0.827035 0.155707 -0.666203 -0.225205 0.710955 0.43651 -0.0925818 0.894923 -0.439484 -0.181865 0.879647 0.742941 0.534572 -0.402828 0.425821 -0.904407 0.0269085 0.07327 -0.742864 0.665421 0.46712 -0.433426 0.770676 0.409773 0.834752 0.367799 -0.719942 0.317953 0.61692 -0.404648 -0.243791 0.881377 0.503203 -0.567884 0.651379 -0.68395 -0.722252 -0.102784 0.600265 0.125 -0.789972 -0.785056 -0.610394 0.105385 -0.768467 -0.263202 0.583253 0.363741 -0.924709 -0.112278 -0.857187 -0.301038 -0.417859 -0.497487 0.531707 0.685415 0.357428 0.564579 -0.743973 -0.888885 -0.317129 0.330624 -0.245409 0.96932 -0.013892 -0.86018 -0.0808911 -0.503534 0.639233 -0.740153 -0.208697 -0.358041 0.655311 0.665112 -0.338327 0.176016 -0.924421 -0.937156 0.183835 -0.296554 0.324563 0.746136 0.581325 -0.178432 0.442404 -0.878886 0.825556 0.0411062 0.562821 0.317164 0.181914 0.93076 0.0280608 -0.256479 0.966142 -0.645619 0.201858 0.736498 -0.811319 -0.571247 0.124246 -0.269531 0.0139006 -0.962892 -0.1657 -0.773105 -0.612251 -0.345075 -0.18958 0.91923 0.869171 0.306181 0.388324 -0.384096 0.821502 0.421431 0.0258188 0.982406 0.184962 0.759727 -0.567299 -0.317784 -0.840042 -0.284261 0.462087 0.585836 0.369587 0.72125 -0.258906 0.420042 -0.869788 -0.414132 -0.891076 -0.185685 0.507507 -0.69571 -0.508355 0.597686 0.27708 0.752329 0.768988 0.639031 -0.0172059 -0.881529 0.35384 -0.312577 -0.690639 0.502087 0.520506 -0.515441 -0.488415 -0.70411 -0.252749 -0.412553 0.875167 