# vtk DataFile Version 4.0
Generated by libgran
ASCII
DATASET POLYDATA
POINTS 144 FLOAT
-2.74804 -6.64956 11.3159 -3.17242 -5.19697 12.2944 -2.87408 -4.14933 12.4009 -4.18155 -5.10258 13.1033 -0.35859 -2.30472 10.5871 -1.79891 -2.08806 10.046 -2.45128 -3.12841 12.5288 -2.4995 -2.20559 9.21325 -3.76064 -1.63905 7.08362 -5.04548 -0.815133 6.43233 -3.42133 -3.24341 8.17069 -2.1838 -0.873318 7.61132 -5.53024 -0.468369 5.16299 -6.5292 -0.43013 4.16176 -7.6642 0.977464 4.4011 -5.031 -1.65245 4.609 -4.52702 -3.29396 4.68383 -3.49049 -1.88391 5.11377 -9.68018 -0.526424 5.23683 -9.46521 -2.06766 4.79698 -8.60951 1.10823 5.03178 -8.43504 -2.10257 3.69003 -7.81256 -1.01785 2.14761 -5.55464 -6.32584 13.431 3.1303 -1.52705 6.85519 1.86223 -1.28872 6.74642 5.11926 -0.447545 5.19662 4.75463 0.688342 4.30031 6.01843 -0.268785 4.1197 5.13179 -1.25436 4.36466 4.51088 -0.89012 6.83414 4.96899 2.51447 4.51022 6.93656 -1.20346 3.68228 6.02783 3.15893 3.85001 5.1189 3.7948 3.78955 4.13366 4.5748 3.60605 4.82709 5.10779 2.50657 4.12162 4.45281 2.2358 5.34009 5.55893 -1.80465 5.88259 5.98019 -0.553399 5.37055 5.81822 1.22694 4.16284 5.35194 1.80006 4.70244 6.48138 2.93533 2.54316 4.88913 1.1725 1.34175 6.03896 0.835561 0.852451 -0.739354 8.18103 0.912688 -1.00787 6.40009 0.0228771 0.111865 9.05646 -0.459859 0.521763 11.9662 -0.924832 1.8096 11.1542 -1.30525 -1.06402 11.8321 -0.913089 1.5606 9.68546 -0.984544 0.444091 8.46812 -1.09428 0.562517 7.38357 -1.25373 1.95306 7.17627 9.15753 -6.75055 0.445758 7.93594 -5.56527 -0.114863 10.5811 -7.53822 0.544818 9.30021 -4.63572 1.36345 10.1828 -5.32796 2.05954 8.47439 -4.42019 2.51471 6.6346 -4.26736 0.380268 8.25693 -3.12208 3.04023 8.96385 -2.70642 4.2923 9.64525 -3.84131 5.04576 10.8088 -3.85919 4.99688 11.0672 -4.75311 5.3632 5.55048 -3.0659 4.04602 5.1719 -3.65246 2.89616 5.16567 -3.6174 1.51155 11.6679 -3.96505 5.49774 11.3418 -2.78339 4.17612 11.3459 -8.8215 -2.59132 11.235 -8.02365 -0.97929 10.3632 -8.22071 -2.53983 10.5554 -7.48354 -5.4842 10.1484 -8.00037 -3.80648 11.5896 -7.18914 -4.83392 -7.32721 1.23801 2.45167 -8.65241 2.42969 2.71865 -7.01248 0.19589 1.68797 -5.63135 1.03252 2.63149 4.54829 5.59825 -8.79846 2.95526 4.7915 -8.55569 3.55419 4.34144 -7.67973 4.87616 6.6177 -10.1134 4.66053 6.65562 -11.7845 4.37 8.09866 -10.8047 4.59763 5.24416 -12.9031 4.7921 7.18715 -12.7848 3.83818 4.6479 -13.8903 3.96747 9.88981 -10.168 2.97133 11.3414 -9.78312 1.47855 11.7012 -9.32408 0.532177 11.1985 -9.66912 0.154165 2.45675 -14.0205 1.4969 3.03822 -15.2101 0.0730634 1.56133 -12.928 0.578091 0.13737 -11.8513 2.61699 3.30336 -14.6764 0.854527 0.473542 -10.7931 -0.251056 -0.124005 -10.6317 0.579149 1.27728 -9.70317 0.465381 0.763464 -8.0476 1.46621 1.18792 -7.142 2.73484 2.09884 -7.77451 0.158151 -0.303009 -7.14831 -3.6024 0.907427 -8.30839 -2.37169 0.206427 -8.75248 -5.21335 0.288571 -8.20688 -5.00532 1.31553 -7.23624 -1.52654 -0.244012 -9.43495 -3.50509 -0.306898 -3.23037 -2.92551 0.946199 -3.76097 -5.20302 -0.863954 -3.46333 -5.31385 -1.81065 -4.03052 -6.46105 -0.358002 -3.50214 -3.49992 1.8428 -4.94381 -4.67773 1.87083 -6.3073 -5.36619 2.78976 -6.25449 -4.43896 -2.74383 -3.09249 -3.45692 -2.73107 -1.58153 -2.38042 -2.12492 -0.146237 -5.17337 3.57927 -4.80595 -5.9195 3.79302 -3.16859 -5.99237 2.9115 -3.63509 -6.43874 4.26101 -1.56358 -6.70455 3.19856 -2.99446 -0.133091 -0.728382 0.469891 -1.27652 -1.3021 1.07442 -0.920963 -0.0458436 1.75122 -4.80783 0.187982 2.86616 -2.21704 1.28799 2.32097 -3.92346 1.47204 2.87039 -8.44241 0.872031 0.272658 -9.25607 0.357691 -1.2508 -9.23584 -0.719655 -0.226109 -8.95408 -0.260248 -2.50141 -8.85406 -1.47971 -3.5245 -7.6324 -0.311006 -2.90069 -10.3681 -1.58213 -0.661611 -12.0417 -0.971069 -0.932212 -11.5522 -2.24316 -1.74066 -13.2418 -2.618 0.254255 

POINT_DATA 144
FIELD FieldData 1
normals 3 144 double
-0.321796 0.938248 0.127037 -0.102584 0.514343 0.851427 0.40092 0.533296 -0.744888 -0.906547 -0.419958 -0.0425169 0.826598 0.511237 0.235312 -0.613721 0.7279 -0.305792 0.0218803 0.487623 0.87278 -0.0868669 -0.845423 -0.526985 0.973267 0.0268648 0.228099 -0.311573 0.850785 -0.423188 0.834965 0.192401 0.515573 0.603578 0.73887 0.299607 -0.173188 -0.504021 -0.846149 0.825774 -0.54226 0.155088 -0.309226 0.865334 0.394432 0.672432 -0.680059 0.292155 0.168452 0.961455 0.217318 0.868071 0.448603 0.212621 0.434596 0.900085 0.0312038 0.649566 -0.641149 -0.408646 0.636078 0.734568 -0.236249 0.3806 0.606233 -0.698301 0.241883 0.478494 -0.844119 -0.466547 -0.803298 0.370198 0.676119 0.370582 0.636813 -0.591951 0.60891 0.528036 0.0960829 -0.176233 0.979648 -0.268549 0.959654 0.0833421 0.995255 0.00252664 -0.0972704 0.108618 -0.983051 0.14769 -0.704461 -0.266343 0.657872 0.482917 0.866471 0.126571 -0.0771243 -0.937205 -0.340144 -0.575922 0.222006 0.786783 -0.333015 0.413864 -0.847241 0.65222 -0.366135 -0.663743 0.0412126 0.899126 -0.435745 -0.664258 0.244146 -0.706508 0.552298 0.771924 0.314802 -0.00979432 -0.350667 0.936449 -0.502245 0.188697 0.843886 -0.70547 -0.65498 -0.270763 -0.165869 0.47446 0.864509 -0.914205 0.192169 -0.356791 -0.287206 0.957663 0.0198475 -0.417825 -0.0595459 0.906574 -0.357588 -0.328066 -0.874359 -0.411749 0.910765 -0.0311409 -0.0474994 -0.998866 0.00334354 -0.512473 0.288974 -0.808619 -0.797896 -0.586917 -0.137444 -0.524217 0.537974 0.660137 -0.595672 -0.578539 -0.557195 0.485933 0.696965 -0.52736 -0.645379 0.693574 0.320064 0.706756 -0.330448 0.62554 -0.514826 0.854833 0.0649184 0.716775 -0.457221 -0.52648 0.0199732 0.337974 -0.940944 0.902517 -0.354269 -0.244859 -0.805854 0.553504 0.210317 -0.786512 0.443075 0.430213 0.588394 0.744609 0.315198 0.118532 -0.328951 0.936879 -0.562868 0.805939 0.18342 0.600722 0.788056 0.134541 0.859031 -0.105862 0.500858 0.310074 -0.828489 -0.466326 -0.688654 0.241936 -0.683537 -0.682422 0.206885 0.70107 0.258308 -0.893918 0.366316 -0.0677749 0.287748 -0.955305 -0.173649 0.769642 0.614407 0.0627973 0.0282058 0.997628 -0.809086 -0.168858 -0.562909 0.187338 -0.127621 0.97397 -0.594355 -0.389208 0.703746 0.846832 0.422022 -0.323688 0.872938 -0.306881 -0.379215 -0.452261 0.884796 -0.112234 -0.558203 -0.735244 -0.384481 0.822919 0.101389 0.559039 0.676187 0.52065 -0.521244 -0.916843 -0.286099 -0.278472 -0.317913 -0.736165 0.597488 -0.348318 0.498802 -0.793644 0.132692 -0.460889 -0.877482 -0.157843 0.982152 0.102291 -0.195593 -0.950569 -0.241167 -0.00112031 0.992427 -0.122829 -0.563861 0.354307 -0.746008 0.244683 -0.809002 -0.534458 -0.751456 0.642594 -0.149625 -0.741326 -0.282759 0.608673 0.205047 0.21997 0.953713 -0.569511 -0.0667007 0.819273 0.773222 0.514776 -0.370316 0.488409 -0.828715 0.273289 0.0166181 -0.595243 0.803374 0.346871 -0.249639 0.90408 0.259818 0.931415 0.254873 -0.845765 0.333868 0.41619 -0.535195 -0.127678 0.835023 0.421427 -0.386137 0.820547 -0.579403 -0.810591 -0.0850495 0.689229 0.100333 -0.717563 -0.728657 -0.680337 0.0787433 -0.815272 -0.203314 0.542214 0.415437 -0.904313 0.0981297 -0.795683 -0.415543 -0.440696 -0.587647 0.611417 0.529943 0.429716 0.453874 -0.780604 -0.891431 -0.328393 0.312263 -0.31185 0.924705 -0.218338 -0.806499 -0.228663 -0.545227 0.695664 -0.718031 -0.0219623 -0.45153 0.734615 0.50642 -0.262569 -0.0280991 -0.964504 -0.915236 0.0561208 -0.398991 0.226772 0.862813 0.451806 -0.179233 0.215154 -0.959992 0.8028 0.227917 0.550969 0.273702 0.378233 0.884323 -0.0339511 -0.073304 0.996732 -0.712176 0.287053 0.640629 -0.785046 -0.59446 0.174126 -0.192936 -0.180938 -0.964384 -0.0728699 -0.881513 -0.466503 -0.313239 -0.129128 0.940855 0.830195 0.444588 0.33633 -0.474633 0.811667 0.34047 -0.000600086 0.945929 0.324375 0.821445 -0.522168 -0.229279 -0.884974 -0.338125 0.320144 0.513808 0.634777 0.577113 -0.299859 0.120438 -0.946351 -0.27962 -0.956909 0.0783447 0.601852 -0.738378 -0.304257 0.501835 0.481083 0.718833 0.719826 0.68762 -0.0950237 -0.852668 0.0944349 -0.513847 -0.820932 0.516625 0.243246 -0.331381 -0.755468 -0.565204 -0.344482 -0.16395 0.924366 