# vtk DataFile Version 4.0
Generated by libgran
ASCII
DATASET POLYDATA
POINTS 144 FLOAT
-2.95342 -6.8383 10.909 -3.38689 -5.43264 11.95 -3.07905 -4.39611 12.1195 -4.41742 -5.36679 12.7344 -0.492487 -2.4912 10.4745 -1.91474 -2.23024 9.90589 -2.64902 -3.38845 12.3122 -2.59393 -2.29727 9.05011 -3.80384 -1.60733 6.93202 -5.07052 -0.735714 6.3078 -3.4999 -3.27171 7.935 -2.2324 -0.886005 7.5333 -5.52556 -0.307721 5.05233 -6.49818 -0.196137 4.03085 -7.61979 1.21233 4.32247 -5.02535 -1.46203 4.4395 -4.54582 -3.11254 4.43355 -3.49799 -1.74362 4.95852 -9.65778 -0.31272 5.06002 -9.44632 -1.83449 4.55545 -8.57143 1.3206 4.94786 -8.39462 -1.82801 3.4684 -7.73195 -0.679792 1.99002 -5.81373 -6.58711 12.9586 3.05817 -1.59563 6.8463 1.7979 -1.32128 6.73187 5.0947 -0.470164 5.27807 4.77626 0.724774 4.44304 6.01306 -0.259103 4.22342 5.09407 -1.22915 4.40217 4.45247 -0.989883 6.8796 5.04238 2.52857 4.75966 6.90845 -1.19559 3.74469 6.13395 3.17329 4.15537 5.24656 3.84028 4.1125 4.28947 4.65961 3.95304 5.02142 5.22904 2.89768 4.30218 4.6121 2.5782 5.6341 5.89448 -1.37128 6.16534 6.23077 -0.089843 5.61263 5.98999 1.66929 4.37969 5.53167 2.19299 4.92962 6.58075 3.39824 2.76009 5.15448 1.51034 1.60134 6.35797 1.21379 0.779453 -0.824388 8.17943 0.860185 -1.00072 6.38782 -0.0530095 -0.00502371 9.08209 -0.602136 0.260667 11.9963 -1.03244 1.59455 11.2416 -1.46065 -1.30542 11.7561 -0.987109 1.42145 9.76263 -1.0413 0.370523 8.4874 -1.12787 0.551061 7.40933 -1.26728 1.95366 7.28575 9.02006 -6.61473 0.240455 7.84852 -5.3589 -0.271233 10.4135 -7.45662 0.318909 9.21202 -4.56653 1.28233 10.0577 -5.32605 1.95359 8.36884 -4.39195 2.42794 6.57986 -4.04988 0.276626 8.18092 -3.11551 3.01441 8.88357 -2.78495 4.29395 9.49558 -3.99316 4.99083 10.6546 -4.06938 4.90421 10.877 -4.98545 5.23793 5.4624 -3.03202 3.98682 5.08715 -3.53721 2.79791 5.1102 -3.41956 1.41804 11.5219 -4.23344 5.37425 11.2176 -2.99944 4.09596 11.1923 -8.58626 -2.87203 11.0799 -7.87771 -1.21891 10.2321 -7.95171 -2.80327 10.5199 -7.08612 -5.70462 10.0549 -7.66321 -4.062 11.5535 -6.87401 -5.02218 -7.24104 1.55788 2.40409 -8.56554 2.74565 2.69117 -6.91511 0.547957 1.60275 -5.55111 1.33251 2.61352 4.43251 5.59841 -8.86697 2.86756 4.74471 -8.60309 3.47095 4.36128 -7.69894 4.73986 6.56379 -10.2269 4.54543 6.5114 -11.9002 4.18831 7.9888 -10.9966 4.54827 5.04575 -12.9487 4.67289 6.9979 -12.9237 3.8241 4.37539 -13.9146 3.71084 9.79255 -10.4542 2.65628 11.2226 -10.1535 1.14492 11.5476 -9.73073 0.224346 10.9903 -10.0614 0.219207 2.05566 -13.9767 1.55623 2.6232 -15.1794 0.157436 1.21482 -12.8404 0.699522 -0.133726 -11.6873 2.6601 2.95208 -14.6472 0.946903 0.265003 -10.6437 -0.137418 -0.366272 -10.4673 0.624637 1.11052 -9.59923 0.50464 0.671679 -7.92266 1.48043 1.17103 -7.02801 2.72388 2.09221 -7.69475 0.218647 -0.358357 -6.97519 -3.53902 0.669132 -8.22056 -2.28652 -0.016724 -8.62565 -5.13322 0.0123899 -8.09531 -4.95668 1.08789 -7.17217 -1.42361 -0.474015 -9.2808 -3.41001 -0.288311 -3.08421 -2.87067 0.95328 -3.68026 -5.09006 -0.909093 -3.28323 -5.17329 -1.88773 -3.79856 -6.36249 -0.443182 -3.34632 -3.47148 1.77027 -4.90684 -4.64699 1.69603 -6.27059 -5.3615 2.59637 -6.26221 -4.26674 -2.73905 -2.81388 -3.2768 -2.61323 -1.31329 -2.20764 -1.90564 0.0804582 -5.19339 3.4591 -4.85288 -5.94667 3.73029 -3.22734 -5.99548 2.82599 -3.65146 -6.4799 4.25987 -1.64624 -6.71573 3.12398 -3.02502 -0.00386906 -0.405105 0.609914 -1.1179 -0.996263 1.25141 -0.792879 0.291415 1.88299 -4.73199 0.476445 2.82012 -2.12316 1.60542 2.419 -3.84937 1.75833 2.91338 -8.34027 1.05293 0.297046 -9.15664 0.349701 -1.14745 -9.05316 -0.620311 -0.0251967 -8.85187 -0.373751 -2.33942 -8.70015 -1.66229 -3.26703 -7.52774 -0.402373 -2.7327 -10.1315 -1.58797 -0.366527 -11.838 -1.10939 -0.692619 -11.2696 -2.42395 -1.37109 -12.9402 -2.69961 0.655649 

POINT_DATA 144
FIELD FieldData 1
normals 3 144 double
-0.312935 0.93498 0.166988 -0.120539 0.470686 0.874028 0.428381 0.565845 -0.704493 -0.909986 -0.404833 -0.0896371 0.824894 0.488785 0.283969 -0.597356 0.749751 -0.284675 0.00164771 0.44181 0.897107 -0.0818335 -0.816788 -0.571105 0.9687 0.00576811 0.248167 -0.29798 0.877379 -0.376051 0.824138 0.157646 0.544008 0.602739 0.715552 0.353116 -0.157061 -0.449385 -0.879423 0.815557 -0.560969 0.142058 -0.30605 0.847498 0.433682 0.657271 -0.704926 0.266597 0.177734 0.945582 0.272553 0.870096 0.42334 0.252421 0.440756 0.894096 0.0795466 0.652213 -0.627671 -0.425026 0.645595 0.739227 -0.191707 0.399493 0.634143 -0.662018 0.263173 0.514081 -0.816371 -0.486325 -0.815489 0.313792 0.674347 0.319691 0.665623 -0.585918 0.594047 0.551187 0.077726 -0.23366 0.969207 -0.24071 0.961278 0.134174 0.996087 -0.0225989 -0.0854426 0.0770941 -0.992648 0.0933045 -0.719955 -0.286059 0.632325 0.506831 0.842516 0.182452 -0.100691 -0.913885 -0.393288 -0.584734 0.19779 0.786743 -0.302648 0.469194 -0.829615 0.654448 -0.350133 -0.670153 0.0775071 0.919569 -0.385207 -0.641737 0.302627 -0.704691 0.570261 0.735677 0.365489 -0.0390167 -0.39939 0.915951 -0.513697 0.158618 0.843182 -0.719244 -0.616942 -0.319484 -0.169307 0.432143 0.885769 -0.900352 0.239752 -0.363161 -0.258398 0.963739 0.0666107 -0.432529 -0.0971581 0.89637 -0.351798 -0.273487 -0.895234 -0.399934 0.916522 0.00629247 -0.0585213 -0.997033 -0.0500003 -0.48883 0.336851 -0.804722 -0.799992 -0.569051 -0.190247 -0.534165 0.509952 0.674253 -0.58836 -0.540976 -0.60098 0.501798 0.721514 -0.477091 -0.64121 0.681086 0.353514 0.683003 -0.389759 0.617733 -0.488538 0.866074 0.106046 0.710463 -0.452129 -0.539279 0.0504965 0.391318 -0.918869 0.896169 -0.368199 -0.24761 -0.792682 0.565903 0.226736 -0.780126 0.44295 0.441813 0.604759 0.710532 0.359737 0.0978886 -0.379972 0.919804 -0.514127 0.828236 0.222932 0.644897 0.752014 0.136319 0.867265 -0.164056 0.470039 0.291239 -0.810218 -0.508651 -0.666484 0.305023 -0.680265 -0.68953 0.187368 0.699601 0.222367 -0.91607 0.33372 -0.0818782 0.317928 -0.944573 -0.156585 0.739603 0.654575 0.0441146 -0.0310447 0.998544 -0.803612 -0.105053 -0.585808 0.16128 -0.183546 0.96969 -0.626326 -0.393552 0.672928 0.872321 0.395656 -0.28725 0.879589 -0.296256 -0.37223 -0.44491 0.891518 -0.0851462 -0.553665 -0.713668 -0.429108 0.810334 0.0708874 0.581664 0.66328 0.519683 -0.538506 -0.901675 -0.334017 -0.274618 -0.298279 -0.717443 0.629528 -0.355935 0.445697 -0.82138 0.161511 -0.498083 -0.851955 -0.195614 0.979321 0.051632 -0.158678 -0.967564 -0.196575 -0.0340541 0.984589 -0.171536 -0.565491 0.297199 -0.769346 0.281851 -0.824429 -0.490793 -0.772712 0.605613 -0.190129 -0.738648 -0.280586 0.61292 0.181929 0.276751 0.943563 -0.576723 -0.0458555 0.815652 0.760304 0.52168 -0.387025 0.514952 -0.794984 0.320664 0.0271341 -0.553565 0.832364 0.343557 -0.192794 0.91913 0.220247 0.952294 0.211251 -0.864074 0.321019 0.387715 -0.542513 -0.106778 0.833233 0.422517 -0.332062 0.843335 -0.553277 -0.831415 -0.0513168 0.690173 0.0897669 -0.718055 -0.70851 -0.697974 0.104142 -0.811714 -0.200198 0.548672 0.440787 -0.886054 0.143581 -0.782483 -0.456545 -0.423424 -0.605946 0.618956 0.499722 0.422121 0.428763 -0.798734 -0.880294 -0.339545 0.331349 -0.340953 0.902046 -0.264696 -0.799757 -0.281236 -0.530372 0.716523 -0.697401 0.0150453 -0.472671 0.747147 0.467283 -0.259866 -0.0850557 -0.961892 -0.91564 0.010816 -0.401855 0.201128 0.889525 0.410234 -0.190032 0.153915 -0.969638 0.799905 0.27973 0.530946 0.269256 0.427862 0.862806 -0.0330193 -0.0267999 0.999095 -0.720258 0.297988 0.626443 -0.769064 -0.606303 0.202327 -0.187027 -0.231595 -0.954665 -0.0488062 -0.904292 -0.424116 -0.293547 -0.109646 0.949636 0.820484 0.481513 0.308143 -0.495463 0.806166 0.32344 -0.00879172 0.926954 0.375071 0.834813 -0.507841 -0.212567 -0.891406 -0.354932 0.281813 0.489582 0.714734 0.499465 -0.326782 0.0115088 -0.94503 -0.223302 -0.958503 0.177222 0.631548 -0.734961 -0.246942 0.479831 0.553578 0.680672 0.692583 0.706338 -0.14634 -0.854997 -0.00915438 -0.518552 -0.851516 0.487729 0.192459 -0.283106 -0.82683 -0.486007 -0.336885 -0.0918116 0.937059 