# vtk DataFile Version 4.0
Generated by libgran
ASCII
DATASET POLYDATA
POINTS 144 FLOAT
-2.66878 -6.56616 11.4797 -3.08963 -5.09449 12.4308 -2.79516 -4.04341 12.5109 -4.0901 -4.98692 13.2488 -0.308583 -2.22834 10.6292 -1.75574 -2.02944 10.0996 -2.37529 -3.01826 12.6117 -2.46442 -2.16764 9.2769 -3.74467 -1.65303 7.14334 -5.03634 -0.849315 6.48041 -3.39167 -3.23068 8.26501 -2.16627 -0.870327 7.64062 -5.53229 -0.536867 5.2065 -6.54122 -0.528832 4.21459 -7.68128 0.878477 4.43039 -5.03292 -1.73254 4.67811 -4.51862 -3.36896 4.78663 -3.48763 -1.94348 5.17721 -9.68562 -0.613763 5.31389 -9.4692 -2.16317 4.90453 -8.62278 1.01983 5.06447 -8.44992 -2.21809 3.78835 -7.84732 -1.16433 2.21684 -5.45367 -6.20869 13.619 3.15887 -1.50259 6.86055 1.88821 -1.27834 6.7521 5.13524 -0.448949 5.17089 4.75556 0.660423 4.24802 6.03027 -0.285856 4.08805 5.1558 -1.27556 4.35876 4.53464 -0.856232 6.8204 4.94873 2.49356 4.4125 6.95859 -1.22001 3.67154 5.99644 3.1352 3.73211 5.07953 3.75845 3.66148 4.08418 4.52226 3.46492 4.76578 5.03745 2.34966 4.06683 4.36803 2.09798 5.25362 5.39395 -1.97397 5.79611 5.85062 -0.735197 5.29442 5.72402 1.05094 4.09518 5.25711 1.64111 4.6269 6.41915 2.74681 2.47805 4.76065 1.03301 1.2614 5.88802 0.675496 0.879772 -0.707526 8.17926 0.934339 -1.01444 6.40435 0.0500932 0.156577 9.04187 -0.40741 0.627563 11.9466 -0.886187 1.89511 11.1111 -1.24688 -0.964494 11.857 -0.887186 1.61416 9.64807 -0.964647 0.47084 8.45626 -1.08271 0.562572 7.36999 -1.25058 1.94624 7.12652 9.23229 -6.82046 0.560822 7.993 -5.66555 -0.0238012 10.667 -7.58586 0.672477 9.3523 -4.67939 1.42367 10.247 -5.34281 2.13216 8.53012 -4.44447 2.57375 6.67757 -4.37178 0.444176 8.29954 -3.13784 3.07186 9.004 -2.68678 4.31303 9.71138 -3.78837 5.09155 10.8757 -3.78057 5.06248 11.1476 -4.6646 5.44269 5.59531 -3.08926 4.08336 5.21932 -3.70983 2.95063 5.20587 -3.71112 1.56563 11.7282 -3.86187 5.57885 11.3985 -2.70162 4.23928 11.4361 -8.93635 -2.43443 11.3206 -8.10018 -0.842269 10.4445 -8.34953 -2.39293 10.6061 -7.66896 -5.35272 10.2183 -8.15857 -3.66235 11.6375 -7.34043 -4.71454 -7.36506 1.09844 2.46863 -8.69039 2.29199 2.72643 -7.05573 0.0415927 1.72318 -5.66668 0.901461 2.63359 4.57437 5.62744 -8.80423 2.97368 4.83513 -8.56432 3.57395 4.36105 -7.70205 4.90426 6.66818 -10.1018 4.67627 6.74101 -11.7701 4.41047 8.16811 -10.7604 4.58849 5.35217 -12.9151 4.80579 7.29024 -12.7611 3.81499 4.78353 -13.9077 4.03419 9.95119 -10.0861 3.0584 11.4067 -9.66554 1.5736 11.7752 -9.18785 0.617954 11.2919 -9.53512 0.105376 2.63678 -14.052 1.44598 3.22582 -15.2403 0.0202087 1.72019 -12.9775 0.514518 0.268194 -11.9338 2.57285 3.46813 -14.71 0.805441 0.579127 -10.8717 -0.307277 -0.00544925 -10.712 0.551777 1.36484 -9.76359 0.446146 0.821942 -8.11678 1.45771 1.21883 -7.21061 2.73241 2.12836 -7.83284 0.13538 -0.259244 -7.23648 -3.6308 1.02056 -8.34682 -2.41017 0.314708 -8.81062 -5.24845 0.418446 -8.25134 -5.02456 1.42251 -7.26049 -1.5746 -0.131985 -9.50721 -3.54427 -0.314817 -3.29775 -2.94629 0.941657 -3.79915 -5.25034 -0.841568 -3.54149 -5.37488 -1.77307 -4.13058 -6.50123 -0.317389 -3.56687 -3.50859 1.87485 -4.95929 -4.6879 1.95165 -6.3196 -5.36355 2.8785 -6.24432 -4.51552 -2.74318 -3.21594 -3.53818 -2.7826 -1.7024 -2.45936 -2.22343 -0.249878 -5.15786 3.63169 -4.77831 -5.89896 3.81763 -3.13529 -5.98421 2.94814 -3.62182 -6.40984 4.25545 -1.51911 -6.69166 3.22984 -2.97363 -0.192497 -0.877988 0.403878 -1.34983 -1.44083 0.991938 -0.980155 -0.198752 1.68709 -4.84102 0.0627459 2.88124 -2.25965 1.14565 2.26934 -3.95622 1.34594 2.84306 -8.48622 0.794852 0.261079 -9.29533 0.366027 -1.29101 -9.31342 -0.753745 -0.31281 -8.99346 -0.204893 -2.5638 -8.91724 -1.39239 -3.62579 -7.67373 -0.266132 -2.96801 -10.4685 -1.56555 -0.784338 -12.1256 -0.898421 -1.02191 -11.6721 -2.14561 -1.88808 -13.3671 -2.56422 0.0934855 

POINT_DATA 144
FIELD FieldData 1
normals 3 144 double
-0.325315 0.939177 0.110077 -0.0955343 0.532486 0.84103 0.390008 0.518593 -0.760891 -0.904938 -0.424917 -0.0230615 0.826899 0.519643 0.214963 -0.620256 0.718547 -0.314598 0.0298591 0.506563 0.861686 -0.0884216 -0.856748 -0.508098 0.974825 0.0350948 0.220193 -0.316844 0.838807 -0.442732 0.838831 0.206298 0.50379 0.603578 0.747607 0.277089 -0.17911 -0.526359 -0.831183 0.829814 -0.534395 0.160719 -0.310247 0.872915 0.376519 0.678481 -0.669313 0.302792 0.164182 0.967111 0.194268 0.866809 0.458371 0.19631 0.431592 0.902032 0.00814254 0.648018 -0.647376 -0.401219 0.631253 0.731562 -0.257559 0.371259 0.592454 -0.714958 0.231345 0.461309 -0.856547 -0.458631 -0.796851 0.393301 0.675207 0.390288 0.625917 -0.595457 0.614539 0.517468 0.0999502 -0.151207 0.983436 -0.279731 0.958166 0.0605636 0.994976 0.011887 -0.0994063 0.120511 -0.97782 0.171306 -0.700556 -0.256076 0.666068 0.472898 0.874968 0.103919 -0.0666518 -0.946046 -0.317104 -0.574817 0.23332 0.784314 -0.342099 0.389922 -0.854944 0.653246 -0.373892 -0.658387 0.0283532 0.88908 -0.456872 -0.670599 0.21966 -0.708553 0.543898 0.785784 0.29448 -0.00140814 -0.329111 0.94429 -0.500282 0.202509 0.841848 -0.698952 -0.66942 -0.25168 -0.167234 0.492621 0.854024 -0.918179 0.172959 -0.356415 -0.29847 0.954418 -0.00110296 -0.41298 -0.0437218 0.90969 -0.358413 -0.350639 -0.865212 -0.4167 0.907825 -0.0470728 -0.0428019 -0.998751 0.025772 -0.521579 0.268799 -0.809754 -0.796666 -0.593307 -0.115372 -0.52058 0.549756 0.653272 -0.598041 -0.593561 -0.538546 0.479977 0.685292 -0.54772 -0.647843 0.698376 0.304254 0.713999 -0.305207 0.630122 -0.525296 0.849702 0.0454997 0.720705 -0.460192 -0.518467 0.0107366 0.31397 -0.949372 0.905461 -0.349451 -0.240882 -0.811439 0.548893 0.200707 -0.790139 0.444064 0.422478 0.580856 0.75773 0.297408 0.123606 -0.306667 0.943757 -0.583773 0.794926 0.165234 0.580592 0.802729 0.13616 0.852497 -0.0813002 0.516371 0.319002 -0.835876 -0.446709 -0.694997 0.215307 -0.686019 -0.681552 0.216599 0.698979 0.271904 -0.88403 0.38021 -0.0578497 0.276223 -0.959351 -0.182567 0.782044 0.595883 0.0670608 0.0541282 0.99628 -0.809039 -0.195224 -0.554386 0.194926 -0.10344 0.975348 -0.582754 -0.386176 0.715028 0.836494 0.431972 -0.337161 0.869567 -0.312237 -0.382572 -0.455763 0.881313 -0.124769 -0.560241 -0.744613 -0.36288 0.828809 0.115255 0.547533 0.678329 0.522595 -0.516493 -0.922362 -0.269719 -0.276588 -0.322093 -0.743794 0.585685 -0.348441 0.518149 -0.781096 0.120448 -0.445326 -0.88723 -0.145345 0.981773 0.12246 -0.208221 -0.943509 -0.25775 0.00907919 0.994563 -0.103743 -0.565283 0.374869 -0.734798 0.230939 -0.801312 -0.551876 -0.744851 0.654185 -0.131299 -0.739945 -0.285679 0.60899 0.215704 0.197591 0.956258 -0.564305 -0.0759524 0.822065 0.776297 0.513085 -0.366207 0.479137 -0.840645 0.252474 0.0151727 -0.611346 0.791218 0.350578 -0.270773 0.896536 0.27575 0.922279 0.270855 -0.836968 0.337703 0.430629 -0.529415 -0.136564 0.837299 0.423784 -0.406336 0.809505 -0.587775 -0.803228 -0.0966704 0.686932 0.106293 -0.718907 -0.73455 -0.67485 0.070802 -0.815416 -0.20508 0.54133 0.405208 -0.910931 0.077534 -0.802239 -0.397032 -0.445846 -0.578342 0.607035 0.545004 0.43036 0.464239 -0.774127 -0.895964 -0.322181 0.305692 -0.297986 0.934293 -0.195708 -0.810105 -0.20457 -0.549437 0.685568 -0.726929 -0.0396463 -0.440784 0.728748 0.524057 -0.264317 -0.00109575 -0.964435 -0.914993 0.0778949 -0.39588 0.239343 0.84895 0.471167 -0.173785 0.24319 -0.954284 0.803562 0.203776 0.559252 0.275254 0.35539 0.893271 -0.0336506 -0.0957621 0.994835 -0.707453 0.281707 0.648191 -0.7927 -0.587787 0.161659 -0.196573 -0.156108 -0.967982 -0.0852469 -0.869494 -0.486532 -0.323066 -0.135638 0.936606 0.834272 0.427208 0.348546 -0.464592 0.814874 0.346603 0.00314112 0.95397 0.299886 0.814905 -0.529525 -0.235653 -0.881658 -0.329229 0.338064 0.522967 0.596636 0.608713 -0.286148 0.16781 -0.943377 -0.304232 -0.951961 0.034823 0.588018 -0.73873 -0.329414 0.511795 0.448771 0.732578 0.731718 0.677491 -0.0748009 -0.850861 0.140158 -0.506351 -0.806263 0.526968 0.268782 -0.352699 -0.720224 -0.597395 -0.346892 -0.19597 0.917203 