# vtk DataFile Version 4.0
Generated by libgran
ASCII
DATASET POLYDATA
POINTS 144 FLOAT
-3.95887 -6.32584 12.9706 -4.30883 -4.59347 13.3226 -3.85206 -3.60958 13.177 -5.4256 -4.12437 13.7856 -0.71678 -2.79399 11.6163 -1.93276 -2.58774 10.6713 -3.27572 -2.66157 13.0964 -2.44467 -2.88272 9.74981 -2.43816 -2.75831 6.90362 -3.54881 -2.0572 5.88934 -3.10728 -4.06066 8.66025 -0.986679 -1.92581 7.64619 -3.86493 -1.94931 4.52739 -4.83746 -2.15081 3.51967 -6.07017 -0.80653 3.50615 -3.28237 -3.17891 4.2004 -2.67913 -4.74682 4.56359 -1.7489 -3.21774 4.77357 -8.10921 -2.27957 4.37467 -8.06361 -3.76821 3.74451 -7.05969 -0.648995 4.05802 -7.5401 -3.72878 2.32596 -7.64972 -2.59792 0.697366 -7.03894 -5.0046 14.1195 4.40422 -2.61789 9.18491 3.31834 -2.4799 8.49319 6.97363 -1.79974 8.41504 7.0411 -0.915471 7.215 8.26376 -1.72812 7.84004 7.38192 -2.74681 7.88623 5.67655 -1.93333 9.65891 7.10868 0.927275 7.05854 9.36197 -2.56363 7.90122 8.31853 1.55965 6.72877 7.48563 2.06289 6.19286 6.62948 2.68139 5.48773 7.68346 3.07469 4.64617 7.16102 2.30686 4.27537 9.8683 2.78646 0.863852 9.83756 3.48538 2.10802 8.66527 3.59125 3.54765 7.34379 3.10854 3.70624 7.35976 4.48157 4.69121 6.11596 2.36098 2.62691 5.11106 3.2882 1.62219 1.79697 -1.74505 9.21773 2.62152 -2.32588 7.72434 0.741177 -0.761522 9.52937 -0.552929 0.345762 12.0743 -0.577004 1.3993 10.8812 -1.62881 -1.09825 12.1429 -0.183133 0.824334 9.5645 0.00374696 -0.506051 8.60077 0.186909 -0.54474 7.52035 0.117057 0.771367 7.00561 12.3353 -8.75478 6.46844 11.1896 -7.85329 5.42629 13.7096 -9.45439 6.99602 12.6775 -5.5746 6.06864 13.9076 -5.3542 6.49407 12.1042 -4.9118 7.20264 9.79112 -6.57062 5.277 11.3915 -3.68731 7.16915 12.002 -2.43726 7.72129 13.3255 -2.50274 8.47239 14.2752 -1.91333 8.14474 15.0267 -2.33589 8.65138 7.85695 -4.55345 8.14879 7.76875 -5.45282 7.15234 8.08488 -5.77842 5.84372 15.0594 -1.36157 8.4286 14.0333 -1.08796 6.972 14.7779 -11.7505 4.61325 14.5042 -10.4409 5.82053 13.7978 -11.2022 4.35226 14.1876 -11.2741 1.33735 13.6713 -11.3425 3.06254 15.1234 -10.6917 1.94071 -7.00635 -0.392925 0.847226 -7.97161 0.766939 1.83237 -7.11288 -1.3768 -0.0410196 -5.4376 -0.572977 0.171181 1.91507 6.30526 -14.0353 0.566886 6.61006 -12.879 0.679785 5.46781 -12.7735 2.61433 7.52344 -14.9855 2.16442 8.81312 -15.9728 3.48596 8.98532 -14.8106 0.673467 8.9426 -16.9767 2.45115 9.68876 -16.6448 -0.415466 9.74872 -17.2436 4.97504 9.62144 -13.7365 5.83862 10.5883 -12.4848 5.55807 11.2444 -11.0497 4.62549 11.7723 -10.7046 -6.5915 7.1149 -16.2484 -5.92488 7.91242 -17.8218 -6.42654 5.89587 -15.5493 -6.01076 4.10193 -15.3239 -4.67223 7.81604 -17.9989 -5.17613 3.94472 -14.5571 -6.20906 3.52197 -13.9574 -4.48749 4.18832 -13.384 -3.76327 3.03418 -12.3063 -2.36601 3.04346 -12.0838 -1.3859 4.11335 -12.9405 -3.78049 1.66562 -11.8975 -7.70599 4.05926 -10.0609 -7.05461 3.41675 -11.2297 -9.22648 3.66905 -9.3368 -8.33403 4.22282 -8.36885 -6.75971 3.147 -12.3357 -5.9585 0.846886 -6.42003 -5.29562 2.13969 -6.6974 -7.68795 0.590411 -5.98327 -8.25974 -0.0113079 -6.7189 -8.67615 1.15251 -5.24325 -5.97546 3.53027 -7.06762 -7.5039 4.31773 -7.60694 -7.78239 5.2402 -6.98029 -7.45388 -1.37737 -6.69439 -6.10147 -2.21661 -5.84927 -4.50934 -2.46492 -4.85439 -6.83421 5.39532 -5.62542 -6.81991 5.16584 -3.82806 -7.36553 4.55455 -4.40133 -6.52984 5.12616 -2.10209 -7.64937 4.74443 -3.46144 -1.86913 -1.85829 -4.77875 -2.89742 -2.39687 -3.96969 -2.02741 -1.52217 -3.1693 -4.61575 -1.42326 -0.0480686 -2.66516 -0.294538 -1.80191 -3.81879 -0.137688 -0.42638 -8.92832 0.367465 -0.731009 -10.2273 0.947433 -1.83731 -10.4305 -0.463205 -1.41308 -10.4691 1.04052 -3.24085 -11.1282 0.42384 -4.55576 -9.47581 1.04931 -4.20117 -11.9011 -0.691816 -1.38917 -13.0231 0.215383 -0.309528 -13.5816 -0.374897 -1.67011 -14.2444 -1.5973 0.575188 

POINT_DATA 144
FIELD FieldData 1
normals 3 144 double
-0.173711 0.952805 -0.248972 -0.176257 0.779564 0.601011 0.633029 0.204329 -0.746675 -0.940513 -0.310457 -0.138029 0.843013 0.452183 0.291306 -0.372968 0.658435 -0.653727 -0.0566834 0.743683 0.666125 -0.138936 -0.953414 -0.267767 0.915228 0.0619094 0.398152 -0.195422 0.763014 -0.616133 0.523678 0.224523 0.821797 0.536258 0.770589 0.344412 -0.120693 -0.655127 -0.745816 0.851835 -0.453636 0.261902 -0.380876 0.89064 0.248382 0.703255 -0.574472 0.418824 0.100017 0.993429 0.0556318 0.830214 0.535649 0.154352 0.440878 0.89747 -0.0131534 0.486487 -0.591164 -0.643316 0.608646 0.733105 -0.30349 0.0370209 0.630593 -0.77523 -0.146645 0.500267 -0.853363 -0.672824 -0.569776 0.471872 0.33703 0.517983 0.786196 -0.748848 0.655973 0.094479 -0.361776 0.0329903 0.931681 -0.294305 0.917262 -0.268355 0.928352 0.104614 0.356677 0.0465093 -0.914073 0.402874 -0.935302 -0.166578 0.31219 0.361887 0.925483 0.111886 0.169863 -0.940121 -0.295497 -0.847956 0.293107 0.441655 0.0150627 0.210131 -0.977557 0.87122 -0.408365 -0.272421 0.182768 0.801674 -0.569135 -0.339673 0.0338435 -0.939934 0.342513 0.878169 0.333924 -0.373254 -0.179252 0.910247 -0.799037 0.28512 0.529383 -0.522441 -0.76783 -0.370799 -0.506477 0.605202 0.614176 -0.705387 0.0202688 -0.708532 -0.299518 0.906952 -0.296187 -0.772529 0.0788846 0.630061 0.0520197 -0.501948 -0.863332 -0.283262 0.904639 -0.31842 -0.223103 -0.947279 0.229973 -0.247177 0.106255 -0.963127 -0.852773 -0.496737 -0.161339 -0.641048 0.681218 0.353554 -0.454168 -0.649167 -0.610175 0.637329 0.610477 -0.470243 -0.707181 0.705631 -0.0445042 0.620658 -0.0922371 0.778637 -0.525051 0.809249 -0.263512 0.753704 -0.607375 -0.25105 -0.343539 -0.368919 -0.863644 0.886515 -0.148522 -0.438214 -0.91681 0.293879 0.270359 -0.873401 0.473416 0.114225 0.20403 0.930618 -0.303845 0.406529 0.319426 0.85598 -0.916978 0.384906 0.104876 0.0327017 0.974321 -0.222776 0.784209 0.551761 0.283859 0.428522 -0.892569 -0.140321 -0.516717 -0.00680754 -0.856129 -0.832842 0.318788 0.452492 0.751507 -0.422561 0.506635 -0.274558 -0.148956 -0.949963 -0.232978 0.93044 0.282848 -0.0408056 0.379144 0.924437 -0.747139 -0.382133 -0.543837 0.104304 0.173494 0.979296 -0.620617 -0.241842 0.745887 0.831517 0.408957 -0.375943 0.576956 -0.263018 -0.773268 -0.388298 0.896846 0.211878 -0.683484 -0.720853 -0.114977 0.991799 0.0829662 0.097223 0.616714 0.242095 -0.749035 -0.73147 0.546894 0.407259 -0.61857 -0.595358 0.512757 0.0825422 0.976084 -0.201112 -0.532451 0.313594 -0.786229 0.78909 0.485796 0.375951 -0.9585 -0.184115 -0.217669 0.819179 0.562046 0.114239 -0.130433 0.990236 -0.0491865 -0.69999 -0.150325 -0.698152 0.163593 0.816557 0.553599 -0.444146 -0.160453 0.88147 0.488428 -0.688293 0.536368 -0.0716166 -0.282178 0.956685 0.595012 0.515346 -0.616749 0.236579 -0.936846 -0.257587 0.179205 -0.857098 0.482979 0.657636 -0.611731 0.439659 0.655425 0.699888 0.283859 -0.377509 0.277136 0.883562 0.0332156 -0.45629 0.889211 0.691002 -0.69785 0.188469 -0.706263 -0.707131 -0.0340353 0.273847 0.362764 -0.890736 -0.708219 -0.670711 0.220391 -0.52962 -0.27935 0.800916 0.121762 -0.921861 -0.367895 -0.990864 -0.110863 -0.0768 -0.0984164 0.442901 0.891153 0.173138 0.652106 -0.738093 -0.742823 -0.341698 0.575722 -0.079945 0.951102 0.298351 -0.986625 0.0852242 -0.138955 0.414826 -0.686944 -0.59668 -0.00158227 0.476872 0.878971 -0.599893 0.439478 -0.668572 -0.928547 0.347987 0.129252 0.650051 0.574479 0.4974 -0.391041 0.679123 -0.621192 0.961362 -0.160113 0.223934 0.630774 -0.0882011 0.770937 0.298135 -0.419352 0.857472 -0.283841 0.189872 0.939885 -0.829456 -0.421417 0.366621 -0.57391 0.229552 -0.786088 -0.545615 -0.611288 -0.573264 -0.0471434 -0.382333 0.922821 0.981144 0.156251 0.113762 -0.111133 0.718456 0.686637 0.169949 0.933254 0.316472 0.526619 -0.509172 -0.680747 -0.627012 -0.352323 0.694784 0.861922 0.084389 0.499968 -0.437023 0.664357 -0.606333 -0.640237 -0.746281 -0.182105 0.195203 -0.571273 -0.797209 0.854356 0.0454047 0.517702 0.798071 0.580067 -0.163108 -0.830408 0.517669 0.206013 -0.291605 0.38953 0.873632 -0.850046 -0.200751 -0.486951 0.0380463 -0.628367 0.776986 