# vtk DataFile Version 4.0
Generated by libgran
ASCII
DATASET POLYDATA
POINTS 144 FLOAT
-2.49219 -5.9544 12.3974 -2.88744 -4.34717 13.1103 -2.59861 -3.29701 13.0024 -3.85257 -4.1067 13.9423 -0.210722 -1.82217 10.7336 -1.68253 -1.70927 10.2486 -2.17901 -2.27054 12.9146 -2.43007 -1.97903 9.49584 -3.59659 -1.73762 7.12867 -4.93286 -1.0347 6.4401 -3.35351 -3.15774 8.61739 -2.01671 -0.883462 7.48317 -5.49968 -0.881438 5.16665 -6.5751 -1.02232 4.25809 -7.76612 0.349742 4.41857 -4.98662 -2.11084 4.73824 -4.37852 -3.70382 4.95454 -3.41205 -2.1995 5.17917 -9.69908 -1.12952 5.46955 -9.46367 -2.69503 5.13961 -8.69376 0.510243 5.06832 -8.51077 -2.79496 3.96924 -8.03647 -1.82686 2.3016 -5.18939 -5.24966 14.5713 3.4228 -1.5231 6.98036 2.1549 -1.3579 6.77596 5.46608 -0.632586 5.27657 5.08809 0.326384 4.19765 6.41683 -0.556332 4.23232 5.57889 -1.55307 4.58141 4.78148 -0.842216 6.93031 5.17765 2.17348 4.12708 7.41256 -1.46855 3.94201 6.2121 2.78831 3.40302 5.26581 3.34439 3.23138 4.23938 4.02224 2.91559 4.93059 4.43569 1.76447 4.27621 3.70289 1.57795 5.55653 4.29756 -2.55875 6.02386 4.92884 -1.36692 5.46643 4.98827 0.406144 4.2738 4.5303 1.01635 4.70689 5.84544 1.98511 2.70605 3.8747 0.430078 1.4454 4.88108 -0.0962346 1.0511 -0.643239 8.06065 1.21601 -1.17306 6.34613 0.179146 0.312286 8.77185 -0.261438 1.21366 11.5858 -0.752824 2.33759 10.5712 -1.0954 -0.371642 11.7825 -0.754505 1.84315 9.16589 -0.824688 0.552655 8.13472 -0.953163 0.523097 7.04616 -1.1611 1.85835 6.62683 9.97726 -7.31498 1.55184 8.64721 -6.34928 0.837814 11.4633 -7.9601 1.73114 9.96858 -5.05317 2.08495 10.9304 -5.5467 2.84257 9.17089 -4.70473 3.22342 7.24974 -5.09121 1.13364 8.86827 -3.36687 3.57995 9.54602 -2.73418 4.75494 10.383 -3.63327 5.65558 11.5332 -3.46833 5.73604 11.8801 -4.29382 6.18131 6.10747 -3.3638 4.56179 5.76471 -4.16825 3.53958 5.7431 -4.37264 2.16985 12.3332 -3.4155 6.33371 11.9885 -2.35691 4.91599 12.2482 -9.74442 -1.14595 12.11 -8.67105 0.294974 11.2137 -9.23552 -1.15842 11.1857 -8.93029 -4.18409 10.9167 -9.23002 -2.4276 12.194 -8.4082 -3.64571 -7.57853 0.451279 2.39218 -8.9009 1.63984 2.68577 -7.30267 -0.640887 1.68551 -5.86914 0.290656 2.44374 4.38523 5.92701 -9.05725 2.78499 5.13373 -8.8176 3.42995 4.53439 -8.07368 4.65297 7.13337 -10.2186 4.31647 7.44183 -11.841 4.15238 8.71752 -10.6276 4.11931 6.22816 -13.1585 4.39354 8.1222 -12.7529 3.2732 5.81591 -14.1689 3.8644 10.3941 -9.68853 2.95369 11.7903 -9.0039 1.51375 12.1101 -8.37706 0.52049 11.705 -8.71868 -0.527239 3.8608 -14.309 0.759532 4.52882 -15.5148 -0.612697 2.81402 -13.3608 -0.165859 1.20229 -12.5579 1.93151 4.65529 -15.0455 0.227659 1.34241 -11.4927 -0.916604 0.827283 -11.3174 0.124347 1.98636 -10.2743 0.0959686 1.23994 -8.70591 1.201 1.44255 -7.8458 2.51778 2.30939 -8.44072 -0.235692 0.0785922 -7.94318 -4.03419 1.72949 -8.64147 -2.87554 1.02856 -9.24932 -5.67541 1.19586 -8.54091 -5.35824 2.06048 -7.44917 -2.10297 0.630778 -10.0417 -3.87934 -0.260682 -3.80354 -3.21194 1.00833 -4.16673 -5.62303 -0.650626 -4.03815 -5.82323 -1.49508 -4.72882 -6.84001 -0.0578509 -3.9504 -3.74405 2.1212 -5.17239 -4.95976 2.44372 -6.4628 -5.57562 3.389 -6.24285 -5.02762 -2.64307 -3.97695 -4.05817 -2.96614 -2.49259 -2.95049 -2.66959 -0.985463 -5.28309 3.93532 -4.70184 -5.96776 3.95107 -3.02424 -6.1174 3.15679 -3.61308 -6.40847 4.2069 -1.34942 -6.78935 3.39236 -2.91094 -0.579809 -1.61977 -0.189382 -1.79668 -2.11485 0.336127 -1.33953 -0.956917 1.11899 -5.03511 -0.529794 2.72257 -2.51319 0.44174 1.78968 -4.14553 0.730561 2.49653 -8.76801 0.470488 0.120335 -9.57291 0.42977 -1.4915 -9.73919 -0.843309 -0.741345 -9.28971 0.0806672 -2.84612 -9.33559 -0.943302 -4.06807 -7.99287 -0.00696228 -3.31453 -11.0051 -1.41522 -1.27604 -12.5856 -0.55113 -1.2195 -12.339 -1.61995 -2.36332 -13.9351 -2.28705 -0.367702 

POINT_DATA 144
FIELD FieldData 1
normals 3 144 double
-0.331618 0.942874 -0.0318941 -0.063634 0.664356 0.744702 0.352464 0.385805 -0.852598 -0.901495 -0.423886 0.0873367 0.833311 0.545888 0.0871755 -0.638496 0.658789 -0.397895 0.0671368 0.640661 0.764883 -0.109049 -0.928553 -0.35482 0.983162 0.0738837 0.167133 -0.353106 0.776801 -0.521437 0.814393 0.250151 0.523631 0.596716 0.780273 0.187362 -0.213715 -0.623538 -0.752015 0.861705 -0.482657 0.15655 -0.329313 0.889405 0.317035 0.72678 -0.605865 0.323602 0.118682 0.987118 0.1073 0.847782 0.517205 0.117328 0.406992 0.910859 -0.0685108 0.642402 -0.654647 -0.398444 0.598331 0.728904 -0.332714 0.310506 0.554716 -0.77193 0.16379 0.413379 -0.895707 -0.435326 -0.719073 0.541687 0.627523 0.490152 0.604951 -0.640374 0.655351 0.400545 0.046564 -0.0188997 0.998737 -0.331418 0.940071 -0.0801832 0.997316 0.0573542 -0.0455173 0.159377 -0.939384 0.303574 -0.731158 -0.190731 0.655003 0.420975 0.907021 0.00961496 -0.00158171 -0.969575 -0.244789 -0.613473 0.292192 0.733672 -0.332814 0.263894 -0.905315 0.693614 -0.413956 -0.589525 -0.00240526 0.827405 -0.5616 -0.656793 0.0946087 -0.748113 0.486523 0.846673 0.215498 -0.0191892 -0.215391 0.976339 -0.538244 0.274823 0.796722 -0.654387 -0.732797 -0.186512 -0.221297 0.582343 0.782243 -0.913362 0.0771967 -0.399764 -0.347286 0.929181 -0.126549 -0.463429 0.0593105 0.884147 -0.29852 -0.470506 -0.830367 -0.408524 0.896214 -0.17294 -0.0354214 -0.983711 0.176232 -0.526807 0.140212 -0.83834 -0.798538 -0.601595 0.0204968 -0.525127 0.63465 0.566975 -0.595309 -0.655845 -0.464192 0.466834 0.626287 -0.624365 -0.674774 0.708971 0.205034 0.748874 -0.154913 0.644353 -0.581175 0.810791 -0.0696733 0.737181 -0.490199 -0.465048 -0.0427838 0.171022 -0.984338 0.919014 -0.322508 -0.226719 -0.840471 0.51947 0.15414 -0.816299 0.447285 0.365504 0.53785 0.818386 0.202388 0.139902 -0.185702 0.972596 -0.697072 0.713382 0.0719493 0.453136 0.878317 0.152403 0.799998 0.0528338 0.597672 0.3692 -0.871345 -0.323187 -0.711954 0.066893 -0.699033 -0.690341 0.271282 0.670697 0.346861 -0.825484 0.445268 0.00216785 0.233107 -0.972449 -0.228746 0.85262 0.469803 0.0905017 0.220755 0.971121 -0.805775 -0.343718 -0.48227 0.239689 0.0494956 0.969587 -0.508739 -0.349225 0.78691 0.768587 0.472586 -0.431204 0.845872 -0.319571 -0.427054 -0.476498 0.868986 -0.133467 -0.570009 -0.772596 -0.279617 0.863524 0.158948 0.478605 0.65486 0.579221 -0.48545 -0.945389 -0.21406 -0.245799 -0.300428 -0.813404 0.498114 -0.38712 0.627136 -0.675898 0.0506138 -0.318678 -0.946511 -0.113477 0.957014 0.26692 -0.247768 -0.894994 -0.370939 0.0264631 0.999052 0.0345804 -0.598341 0.482746 -0.639488 0.174496 -0.719581 -0.672127 -0.736214 0.676634 0.0124997 -0.70373 -0.356872 0.614334 0.289531 0.0482702 0.955951 -0.512018 -0.148094 0.846112 0.774753 0.519934 -0.359759 0.42656 -0.898685 0.102037 0.020278 -0.713038 0.700832 0.397229 -0.393467 0.829092 0.37324 0.853152 0.36445 -0.771023 0.338027 0.539687 -0.476552 -0.209204 0.853892 0.448174 -0.537216 0.71452 -0.656854 -0.739829 -0.145588 0.659932 0.127016 -0.740511 -0.779834 -0.624127 0.0482125 -0.801414 -0.231389 0.551539 0.357235 -0.932315 -0.0563178 -0.839803 -0.30224 -0.450979 -0.522638 0.562381 0.640763 0.41534 0.534532 -0.736049 -0.904919 -0.299536 0.302323 -0.237522 0.969474 -0.0608587 -0.83877 -0.0904085 -0.536927 0.638575 -0.754044 -0.153749 -0.378213 0.683184 0.624672 -0.294584 0.143394 -0.944806 -0.921123 0.179136 -0.345604 0.305257 0.766137 0.565554 -0.157028 0.393945 -0.905621 0.812424 0.070873 0.578744 0.295261 0.22568 0.92838 -0.0127242 -0.219814 0.975459 -0.671949 0.235567 0.702135 -0.821585 -0.558714 0.1133 -0.231241 -0.0202612 -0.972686 -0.149636 -0.794281 -0.588835 -0.358315 -0.166031 0.918719 0.858551 0.329055 0.39321 -0.401407 0.828879 0.389655 0.0294938 0.979399 0.199769 0.772253 -0.569778 -0.281033 -0.860085 -0.280956 0.425814 0.56591 0.41154 0.71441 -0.23899 0.370822 -0.897427 -0.40527 -0.902257 -0.147271 0.522189 -0.719925 -0.457195 0.568073 0.304045 0.764755 0.774647 0.632295 -0.0112074 -0.860683 0.330345 -0.387424 -0.71973 0.533747 0.443962 -0.473183 -0.535071 -0.699855 -0.305303 -0.354439 0.883835 