# vtk DataFile Version 4.0
Generated by libgran
ASCII
DATASET POLYDATA
POINTS 30 FLOAT
-3.4867 -2.83571 8.32433 -1.49239 -6.52326 9.32505 -4.1309 -4.94315 10.0771 -3.3062 -4.55811 6.42029 -2.62536 -0.980795 1.40851 -2.85397 -2.08136 6.73698 7.36754 -2.13948 6.42068 6.38725 -3.06484 6.43889 7.7832 0.270645 6.88523 7.32274 1.24239 6.60615 9.51869 2.99193 4.94286 8.11925 3.20664 4.93671 6.90198 3.68858 3.7049 -0.686064 0.171806 9.02922 -0.146906 -0.909792 8.15815 0.651743 -2.56388 6.74135 11.3535 -5.19224 8.79022 11.0745 -2.75764 8.9696 11.5345 -2.98062 9.82908 6.53039 -4.78484 7.20026 -0.779283 6.09714 -15.5042 -2.73213 7.43594 -16.2218 -2.09216 7.96172 -12.4317 -3.63543 2.99778 -11.2487 -6.26908 7.08495 -3.93677 -4.27978 -0.133979 -5.59311 -2.03017 -0.108337 -4.17415 -2.20278 -0.022894 -2.38237 -7.81289 1.25446 -1.39462 -9.1219 1.42915 -2.08131 

POINT_DATA 30
FIELD FieldData 1
normals 3 30 double
0.373915 0.0502458 -0.926101 0.647079 -0.527356 0.550622 -0.374651 -0.0623463 0.925067 0.448669 -0.505678 0.736876 0.121356 0.4285 -0.895355 0.258808 0.70411 -0.661247 0.806764 0.138753 0.574351 -0.17353 -0.78661 0.592564 -0.784604 0.39944 0.474178 0.324139 0.57231 -0.753256 -0.659113 0.390536 0.642691 -0.740327 -0.175834 -0.648843 -0.476941 0.657779 -0.58297 -0.307067 -0.558307 -0.770716 -0.846225 0.523291 0.100353 0.575117 0.60748 -0.547912 0.963207 0.20896 0.169018 0.167195 0.880933 -0.442721 0.627219 0.657959 0.416757 0.316675 -0.933393 0.168806 -0.666344 0.170961 -0.725781 0.661976 0.738283 -0.129326 -0.381362 0.0870397 0.920319 0.109895 0.468974 -0.876348 -0.594469 -0.781791 -0.188174 0.339108 -0.939679 0.0448229 -0.0379257 -0.458187 -0.888046 -0.210531 -0.372744 0.903736 -0.341717 0.113692 -0.932901 -0.967294 0.061002 0.246213 