# vtk DataFile Version 4.0
Generated by libgran
ASCII
DATASET POLYDATA
POINTS 30 FLOAT
-3.48669 -2.83574 8.3243 -1.49241 -6.52333 9.32493 -4.13092 -4.94323 10.077 -3.30619 -4.55809 6.42021 -2.6253 -0.980631 1.40854 -2.85396 -2.08134 6.73698 7.36756 -2.1395 6.42074 6.38726 -3.06486 6.43892 7.78323 0.270603 6.88537 7.32277 1.24236 6.60631 9.51875 2.99191 4.94308 8.11932 3.20665 4.93694 6.90205 3.68866 3.70515 -0.686051 0.171746 9.0293 -0.146892 -0.909831 8.1582 0.651759 -2.56388 6.74135 11.3535 -5.19236 8.79023 11.0745 -2.75776 8.96968 11.5345 -2.98076 9.82915 6.53039 -4.78489 7.20025 -0.779312 6.09725 -15.5043 -2.73217 7.43618 -16.2209 -2.09252 7.9618 -12.4323 -3.63541 2.99771 -11.2487 -6.26928 7.08504 -3.93696 -4.27962 -0.133812 -5.59308 -2.03003 -0.108028 -4.17409 -2.20268 -0.0226237 -2.38231 -7.81282 1.25457 -1.39459 -9.12184 1.42918 -2.08128 

POINT_DATA 30
FIELD FieldData 1
normals 3 30 double
0.373922 0.0502702 -0.926097 0.647072 -0.527375 0.550612 -0.374658 -0.0623707 0.925063 0.448661 -0.505701 0.736865 0.121365 0.428524 -0.895342 0.258816 0.704127 -0.661226 0.806761 0.138733 0.574361 -0.173538 -0.786626 0.59254 -0.784605 0.39943 0.474184 0.324147 0.57233 -0.753238 -0.6591 0.390528 0.642709 -0.740336 -0.175794 -0.648845 -0.47693 0.657811 -0.582943 -0.307064 -0.558284 -0.770734 -0.846223 0.523292 0.100362 0.575124 0.607493 -0.547891 0.963207 0.208951 0.169031 0.167202 0.880945 -0.442695 0.627219 0.657944 0.41678 0.316669 -0.933399 0.168782 -0.6663 0.171147 -0.725778 0.661879 0.738368 -0.129344 -0.381635 0.0871854 0.920192 0.109876 0.468945 -0.876366 -0.594431 -0.781827 -0.188146 0.339173 -0.939655 0.0448264 -0.037884 -0.458173 -0.888055 -0.210539 -0.372769 0.903724 -0.341719 0.11364 -0.932906 -0.967298 0.0609657 0.246207 