# vtk DataFile Version 4.0
Generated by libgran
ASCII
DATASET POLYDATA
POINTS 30 FLOAT
-3.51123 -2.84652 8.33407 -1.547 -6.54985 9.33651 -4.17072 -4.94618 10.0905 -3.34819 -4.57281 6.43197 -2.64415 -1.00751 1.4147 -2.87444 -2.09956 6.74485 7.34993 -2.16066 6.41525 6.38322 -3.10005 6.44037 7.73538 0.260717 6.85127 7.26187 1.22193 6.5579 9.42976 2.97071 4.85784 8.02785 3.16867 4.85418 6.79973 3.61628 3.62018 -0.683917 0.137763 9.03112 -0.155298 -0.949436 8.16057 0.627092 -2.61198 6.74462 11.3817 -5.13979 8.80148 11.0674 -2.70832 8.9651 11.5311 -2.91904 9.82572 6.55197 -4.81273 7.21291 -0.765523 6.0813 -15.5063 -2.70425 7.4478 -16.2158 -2.03661 7.94599 -12.4129 -3.64138 2.99724 -11.2547 -6.20858 7.0952 -3.91355 -4.30397 -0.144585 -5.58485 -2.05178 -0.146478 -4.17013 -2.219 -0.0579598 -2.37799 -7.81508 1.27684 -1.38247 -9.1229 1.46788 -2.06709 

POINT_DATA 30
FIELD FieldData 1
normals 3 30 double
0.372925 0.0459058 -0.926725 0.64332 -0.532246 0.550321 -0.3738 -0.0579685 0.925696 0.44545 -0.50855 0.736852 0.1237 0.42633 -0.89607 0.263856 0.701056 -0.662496 0.805093 0.15425 0.572741 -0.161616 -0.785136 0.597865 -0.787936 0.397411 0.470342 0.314431 0.563805 -0.763713 -0.66111 0.392991 0.639133 -0.740804 -0.195033 -0.642784 -0.48731 0.642645 -0.591216 -0.312977 -0.556617 -0.769561 -0.841595 0.530582 0.100996 0.579433 0.601892 -0.54953 0.960186 0.224119 0.166772 0.15424 0.880354 -0.448539 0.617892 0.669627 0.412079 0.330367 -0.927548 0.174678 -0.667939 0.181762 -0.721678 0.671672 0.729646 -0.128349 -0.373327 0.085585 0.923744 0.111949 0.472596 -0.87414 -0.603514 -0.77459 -0.189162 0.327428 -0.943846 0.0441114 -0.0451693 -0.458326 -0.887636 -0.212384 -0.369808 0.904508 -0.34158 0.119651 -0.932205 -0.966232 0.0713859 0.247587 