# vtk DataFile Version 4.0
Generated by libgran
ASCII
DATASET POLYDATA
POINTS 30 FLOAT
-3.51407 -2.84996 8.33361 -1.54821 -6.55246 9.33586 -4.17303 -4.95038 10.0893 -3.34947 -4.57572 6.43116 -2.64564 -1.00888 1.41496 -2.87715 -2.10229 6.74478 7.34736 -2.15783 6.41863 6.38115 -3.09774 6.44321 7.73137 0.263654 6.85535 7.25744 1.22468 6.56204 9.42495 2.97506 4.86314 8.02293 3.17222 4.85902 6.79501 3.61941 3.62467 -0.688602 0.135682 9.03231 -0.159105 -0.951032 8.16168 0.624658 -2.61283 6.74561 11.3799 -5.13535 8.80555 11.0643 -2.70408 8.96962 11.5278 -2.91476 9.83035 6.55056 -4.81051 7.21542 -0.764195 6.08665 -15.5026 -2.7033 7.45214 -16.2148 -2.03651 7.94973 -12.4079 -3.64018 3.00019 -11.2533 -6.21149 7.09392 -3.91129 -4.30368 -0.144575 -5.58492 -2.05195 -0.14621 -4.16949 -2.2197 -0.0582326 -2.37737 -7.81675 1.27384 -1.38339 -9.12439 1.4647 -2.06838 

POINT_DATA 30
FIELD FieldData 1
normals 3 30 double
0.373216 0.0463195 -0.926588 0.643418 -0.532028 0.550417 -0.374083 -0.0583824 0.925556 0.445472 -0.508481 0.736886 0.123776 0.426603 -0.895929 0.263705 0.70135 -0.662245 0.804816 0.15455 0.57305 -0.161398 -0.78536 0.597629 -0.788309 0.396879 0.470165 0.314388 0.564149 -0.763476 -0.661564 0.392478 0.638979 -0.74046 -0.195314 -0.643096 -0.48746 0.642497 -0.591254 -0.312417 -0.556607 -0.769795 -0.841914 0.530107 0.100832 0.579297 0.602329 -0.549194 0.960009 0.224595 0.16715 0.15392 0.88054 -0.448283 0.617392 0.669863 0.412444 0.330805 -0.927411 0.174576 -0.667894 0.181216 -0.721857 0.671611 0.729802 -0.127784 -0.373041 0.0847437 0.923937 0.112085 0.473028 -0.873889 -0.603161 -0.774727 -0.189723 0.327691 -0.943764 0.0439176 -0.0447449 -0.458107 -0.88777 -0.212493 -0.37013 0.904351 -0.341293 0.119943 -0.932273 -0.966346 0.0709198 0.247277 