# vtk DataFile Version 4.0
Generated by libgran
ASCII
DATASET POLYDATA
POINTS 30 FLOAT
-6.88062 -4.07224 13.1202 -2.31125 -6.35805 11.5897 -4.26935 -4.73963 13.0798 -3.60973 -4.32806 8.49492 -6.09488 -0.313819 3.66318 -8.62212 -3.39675 13.1213 8.97627 -1.62173 8.70394 8.13275 -2.67265 8.74322 9.00273 1.56113 7.5692 8.2038 2.06474 6.98419 9.50507 3.51538 4.33999 8.17429 3.05028 4.47107 6.96764 2.29861 3.37091 0.0357734 1.56919 11.0858 0.442777 0.858184 9.84163 1.04341 -0.572085 7.99103 15.0283 -5.50237 6.07094 16.3836 -2.5495 6.7373 17.2241 -3.06946 6.88967 8.63523 -4.45481 9.10377 2.40647 9.05455 -15.0118 0.565135 10.7151 -16.5671 3.12234 10.052 -8.54559 -2.59706 3.92598 -14.5172 -8.00878 5.85161 -4.61839 -2.33266 -1.14832 -5.41075 -2.97394 0.385704 -2.38003 -3.99464 0.510574 -0.90014 -10.7122 0.177261 -1.86546 -12.1963 0.0665611 -1.89339 

POINT_DATA 30
FIELD FieldData 1
normals 3 30 double
-0.754915 0.63665 -0.157419 0.689297 -0.599441 0.406866 0.235508 0.0838101 0.968252 0.215898 -0.49306 0.842781 0.666523 0.659654 -0.34728 -0.98659 0.0388327 0.15853 0.898583 0.158759 0.409076 0.0550656 -0.892157 0.448356 -0.859892 0.321639 0.396402 0.060965 0.181978 -0.981411 -0.809406 0.302845 0.503136 -0.521367 -0.767949 -0.372063 -0.685282 0.0162772 -0.728096 -0.246573 -0.00591253 -0.969106 -0.653576 0.705089 0.275112 0.732069 0.607742 -0.307775 0.622497 -0.358847 -0.695504 0.0489533 0.961192 -0.271503 0.88945 0.441232 -0.119133 0.447418 -0.890004 -0.0878052 -0.191996 0.581593 -0.790498 0.0418159 0.95439 0.295619 0.252746 -0.873727 0.415596 0.12498 0.306353 -0.943678 -0.617987 -0.667643 -0.415143 -0.00306458 -0.39009 0.920772 0.488092 -0.495078 -0.718794 -0.532611 -0.370207 0.761099 -0.691666 -0.660993 -0.29101 -0.792443 0.550293 0.263082 