# vtk DataFile Version 4.0
Generated by libgran
ASCII
DATASET POLYDATA
POINTS 30 FLOAT
-5.69253 -3.13679 11.1287 -1.00087 -5.93635 10.266 -3.51845 -4.67463 11.6436 -3.19674 -3.76925 7.83765 -4.12867 -0.325201 2.28919 -7.10679 -1.94834 10.852 7.67887 -2.21238 6.23125 6.72305 -3.14699 6.40595 8.17184 0.233734 6.48647 7.68232 1.18545 6.18845 9.6158 2.69557 4.04964 8.2377 2.96274 4.23399 6.85299 3.36085 3.15906 0.358224 0.637115 9.90506 0.627702 -0.501464 8.98293 0.995103 -2.2426 7.50338 12.0014 -5.18014 8.06072 11.7146 -2.74664 8.24285 12.2932 -2.95018 9.0327 6.99756 -4.85185 7.16533 0.6773 8.48919 -15.0697 -1.03037 10.308 -15.3143 1.81684 8.88343 -10.3891 -3.04554 3.44993 -12.6435 -7.14204 5.9916 -4.90889 -4.50099 -1.22636 -4.89158 -2.60349 -0.60788 -3.16989 -3.11269 -0.158652 -1.50062 -8.99045 0.596256 -1.6822 -10.1952 0.619638 -2.55603 

POINT_DATA 30
FIELD FieldData 1
normals 3 30 double
-0.488193 0.869504 -0.0750328 0.72821 -0.595209 0.33976 -0.213504 -0.284327 0.934652 0.522701 -0.541544 0.658417 0.229947 0.253093 -0.939717 -0.926064 0.318943 -0.201693 0.879889 0.156395 0.448705 -0.0759353 -0.778206 0.623401 -0.702012 0.458079 0.545292 0.212494 0.493637 -0.843308 -0.541843 0.480896 0.689308 -0.836262 -0.213728 -0.504961 -0.548445 0.611837 -0.569968 -0.476894 -0.504583 -0.7197 -0.746372 0.633996 0.202431 0.588542 0.516149 -0.622261 0.974167 0.223905 0.0294145 0.0910835 0.875744 -0.474106 0.669662 0.672205 0.315742 0.350445 -0.926659 0.135982 -0.458938 0.668001 -0.585791 0.647353 0.544259 0.533587 0.207669 -0.270238 0.94013 -0.132841 0.792883 -0.594718 -0.523175 -0.834007 -0.17527 0.362626 -0.866701 0.342537 0.166766 -0.640713 -0.74945 -0.342435 -0.191485 0.919821 -0.222984 -0.14385 -0.96415 -0.981772 0.167232 0.0903147 