# vtk DataFile Version 4.0
Generated by libgran
ASCII
DATASET POLYDATA
POINTS 30 FLOAT
-3.48669 -2.83574 8.3243 -1.49242 -6.52334 9.32491 -4.13092 -4.94324 10.077 -3.30619 -4.55808 6.4202 -2.62529 -0.980607 1.40854 -2.85395 -2.08134 6.73698 7.36756 -2.13951 6.42075 6.38726 -3.06487 6.43893 7.78324 0.270597 6.88539 7.32278 1.24236 6.60634 9.51876 2.99191 4.94311 8.11933 3.20665 4.93698 6.90206 3.68868 3.70519 -0.686049 0.171737 9.02931 -0.14689 -0.909836 8.15821 0.651761 -2.56388 6.74136 11.3535 -5.19237 8.79023 11.0745 -2.75778 8.96969 11.5345 -2.98078 9.82916 6.53039 -4.78489 7.20024 -0.779316 6.09726 -15.5043 -2.73218 7.43622 -16.2208 -2.09257 7.96181 -12.4324 -3.63541 2.9977 -11.2487 -6.26931 7.08505 -3.93699 -4.27959 -0.133788 -5.59308 -2.03001 -0.107983 -4.17408 -2.20267 -0.0225847 -2.3823 -7.81281 1.25459 -1.39458 -9.12183 1.42918 -2.08128 

POINT_DATA 30
FIELD FieldData 1
normals 3 30 double
0.373923 0.0502737 -0.926096 0.647071 -0.527377 0.55061 -0.374659 -0.0623742 0.925062 0.44866 -0.505704 0.736863 0.121366 0.428528 -0.89534 0.258817 0.70413 -0.661222 0.80676 0.13873 0.574362 -0.173539 -0.786629 0.592537 -0.784605 0.399429 0.474185 0.324149 0.572332 -0.753235 -0.659098 0.390527 0.642712 -0.740337 -0.175788 -0.648845 -0.476928 0.657815 -0.582939 -0.307064 -0.558281 -0.770736 -0.846222 0.523292 0.100363 0.575125 0.607495 -0.547888 0.963207 0.208949 0.169033 0.167203 0.880947 -0.442691 0.627219 0.657942 0.416783 0.316668 -0.9334 0.168778 -0.666294 0.171174 -0.725777 0.661864 0.73838 -0.129346 -0.381674 0.0872067 0.920174 0.109873 0.468941 -0.876369 -0.594426 -0.781832 -0.188141 0.339183 -0.939652 0.0448269 -0.037878 -0.458171 -0.888057 -0.210541 -0.372772 0.903722 -0.34172 0.113632 -0.932907 -0.967298 0.0609604 0.246207 