# vtk DataFile Version 4.0
Generated by libgran
ASCII
DATASET POLYDATA
POINTS 30 FLOAT
-3.4867 -2.83566 8.32439 -1.49235 -6.52314 9.32527 -4.13086 -4.94301 10.0773 -3.30622 -4.55816 6.42043 -2.62548 -0.981105 1.40845 -2.85401 -2.08139 6.73699 7.3675 -2.13943 6.42055 6.38722 -3.0648 6.43882 7.78315 0.270723 6.88497 7.32267 1.24245 6.60584 9.51856 2.99198 4.94247 8.11911 3.20662 4.93628 6.90184 3.68842 3.70442 -0.686088 0.17192 9.02908 -0.146932 -0.90972 8.15806 0.651713 -2.56387 6.74133 11.3535 -5.19203 8.7902 11.0745 -2.75742 8.96945 11.5345 -2.98035 9.82894 6.53039 -4.78476 7.20028 -0.779224 6.09693 -15.504 -2.73203 7.4355 -16.2233 -2.0915 7.96156 -12.4306 -3.63546 2.99791 -11.2487 -6.2687 7.08478 -3.93642 -4.28008 -0.134292 -5.59317 -2.03044 -0.108917 -4.17427 -2.20295 -0.0234009 -2.38248 -7.81302 1.25424 -1.39469 -9.12202 1.4291 -2.08136 

POINT_DATA 30
FIELD FieldData 1
normals 3 30 double
0.373902 0.0502001 -0.926109 0.647091 -0.527321 0.550641 -0.374638 -0.0623007 0.925076 0.448684 -0.505635 0.736897 0.12134 0.428453 -0.895379 0.258793 0.704077 -0.661288 0.80677 0.138791 0.574333 -0.173514 -0.78658 0.592608 -0.784601 0.399458 0.474168 0.324124 0.572273 -0.753291 -0.659138 0.390551 0.642656 -0.740311 -0.175911 -0.648841 -0.476963 0.657718 -0.583021 -0.307072 -0.558351 -0.770682 -0.846228 0.523288 0.100336 0.575104 0.607456 -0.547952 0.963208 0.208978 0.168994 0.167181 0.880911 -0.44277 0.627218 0.657987 0.416713 0.316686 -0.933381 0.168851 -0.666427 0.170616 -0.725786 0.662159 0.738125 -0.129291 -0.380862 0.0867746 0.920551 0.109932 0.469028 -0.876315 -0.594539 -0.781724 -0.188228 0.338986 -0.939723 0.0448163 -0.0380038 -0.458214 -0.888029 -0.210515 -0.372698 0.903759 -0.341712 0.113791 -0.93289 -0.967287 0.0610701 0.246223 