# vtk DataFile Version 4.0
Generated by libgran
ASCII
DATASET POLYDATA
POINTS 30 FLOAT
-3.4867 -2.83572 8.32432 -1.4924 -6.52329 9.325 -4.1309 -4.94318 10.0771 -3.3062 -4.5581 6.42026 -2.62534 -0.980737 1.40852 -2.85397 -2.08135 6.73698 7.36755 -2.13949 6.4207 6.38725 -3.06485 6.4389 7.78321 0.27063 6.88528 7.32275 1.24238 6.60621 9.51871 2.99193 4.94294 8.11927 3.20664 4.93679 6.902 3.68861 3.70499 -0.686059 0.171785 9.02925 -0.146901 -0.909806 8.15817 0.651748 -2.56388 6.74135 11.3535 -5.19228 8.79022 11.0745 -2.75769 8.96963 11.5345 -2.98067 9.8291 6.53039 -4.78486 7.20025 -0.779293 6.09718 -15.5042 -2.73214 7.43603 -16.2215 -2.09229 7.96175 -12.4319 -3.63542 2.99776 -11.2487 -6.26915 7.08498 -3.93684 -4.27972 -0.13392 -5.5931 -2.03012 -0.108227 -4.17413 -2.20274 -0.022798 -2.38235 -7.81287 1.2545 -1.39461 -9.12188 1.42916 -2.0813 

POINT_DATA 30
FIELD FieldData 1
normals 3 30 double
0.373918 0.0502545 -0.926099 0.647077 -0.527363 0.550618 -0.374653 -0.062355 0.925066 0.448666 -0.505686 0.736872 0.121359 0.428508 -0.89535 0.258811 0.704116 -0.66124 0.806763 0.138746 0.574355 -0.173532 -0.786616 0.592555 -0.784604 0.399436 0.47418 0.324142 0.572317 -0.75325 -0.659108 0.390534 0.642698 -0.74033 -0.17582 -0.648844 -0.476937 0.65779 -0.58296 -0.307066 -0.558299 -0.770722 -0.846224 0.523291 0.100356 0.57512 0.607485 -0.547905 0.963207 0.208957 0.169023 0.167197 0.880938 -0.442712 0.627219 0.657954 0.416765 0.316673 -0.933395 0.168797 -0.666329 0.171026 -0.72578 0.661942 0.738313 -0.129332 -0.381458 0.087091 0.920274 0.109888 0.468964 -0.876355 -0.594455 -0.781804 -0.188164 0.339131 -0.939671 0.0448241 -0.0379109 -0.458182 -0.88805 -0.210534 -0.372753 0.903732 -0.341718 0.113674 -0.932903 -0.967295 0.0609891 0.246211 