# vtk DataFile Version 4.0
Generated by libgran
ASCII
DATASET POLYDATA
POINTS 30 FLOAT
-3.48671 -2.83556 8.32449 -1.49227 -6.52289 9.32571 -4.13079 -4.94274 10.0776 -3.30625 -4.55825 6.42071 -2.6257 -0.981703 1.40834 -2.85407 -2.08143 6.737 7.36743 -2.13933 6.42029 6.38716 -3.06472 6.43869 7.78305 0.270877 6.88445 7.32254 1.24257 6.60524 9.51833 2.99205 4.94168 8.11887 3.20658 4.93544 6.90158 3.68813 3.70349 -0.686133 0.17215 9.0288 -0.146981 -0.909571 8.15788 0.651656 -2.56386 6.7413 11.3535 -5.19161 8.79016 11.0745 -2.757 8.96917 11.5345 -2.97982 9.82866 6.53038 -4.78459 7.20033 -0.779074 6.09661 -15.5036 -2.73179 7.43485 -16.2258 -2.09032 7.96131 -12.4288 -3.63552 2.99815 -11.2486 -6.26798 7.08445 -3.93576 -4.28067 -0.13491 -5.59328 -2.03096 -0.110046 -4.1745 -2.20329 -0.024387 -2.38271 -7.81327 1.25382 -1.39482 -9.12224 1.429 -2.08145 

POINT_DATA 30
FIELD FieldData 1
normals 3 30 double
0.373877 0.0501101 -0.926124 0.647115 -0.527252 0.550679 -0.374612 -0.0622108 0.925092 0.448712 -0.50555 0.736937 0.121309 0.428362 -0.895427 0.258763 0.704012 -0.661369 0.806783 0.138865 0.574297 -0.173485 -0.786522 0.592694 -0.784596 0.399493 0.474147 0.324094 0.5722 -0.753359 -0.659182 0.390583 0.642592 -0.740284 -0.176054 -0.648833 -0.477003 0.657605 -0.583116 -0.307083 -0.558437 -0.770616 -0.846235 0.523284 0.100304 0.575079 0.607409 -0.548031 0.963209 0.209013 0.168947 0.167154 0.880868 -0.442867 0.627218 0.658041 0.416628 0.316706 -0.933358 0.16894 -0.666564 0.170074 -0.725787 0.662482 0.737848 -0.129221 -0.380042 0.0863423 0.92093 0.110002 0.469132 -0.876251 -0.594676 -0.781596 -0.18833 0.33875 -0.939809 0.0448062 -0.0381562 -0.458266 -0.887996 -0.210485 -0.372607 0.903803 -0.341704 0.11398 -0.93287 -0.967274 0.0612019 0.246243 