# vtk DataFile Version 4.0
Generated by libgran
ASCII
DATASET POLYDATA
POINTS 30 FLOAT
-3.51089 -2.84612 8.33412 -1.54684 -6.54954 9.33658 -4.17043 -4.9457 10.0906 -3.34803 -4.57246 6.43205 -2.64398 -1.00733 1.41467 -2.87413 -2.09924 6.74486 7.35023 -2.16092 6.41487 6.38347 -3.10025 6.44005 7.73583 0.260447 6.85082 7.26237 1.22168 6.55744 9.43029 2.97029 4.85724 8.02839 3.16833 4.85364 6.80025 3.61599 3.61968 -0.683387 0.138021 9.03099 -0.154863 -0.949229 8.16044 0.627381 -2.61186 6.7445 11.3819 -5.14022 8.80103 11.0678 -2.70872 8.96459 11.5315 -2.91945 9.8252 6.55215 -4.81292 7.21263 -0.765683 6.08073 -15.5067 -2.70438 7.44733 -16.216 -2.03664 7.9456 -12.4135 -3.64151 2.99693 -11.2548 -6.20827 7.09535 -3.91381 -4.30399 -0.14457 -5.58485 -2.05175 -0.146484 -4.17021 -2.21891 -0.0579061 -2.37806 -7.81489 1.27718 -1.38238 -9.12272 1.46823 -2.06696 

POINT_DATA 30
FIELD FieldData 1
normals 3 30 double
0.372893 0.0458612 -0.92674 0.643311 -0.532269 0.550311 -0.373768 -0.0579239 0.925712 0.445449 -0.508557 0.736848 0.123691 0.426301 -0.896085 0.26387 0.701024 -0.662524 0.805123 0.154219 0.572706 -0.161638 -0.785111 0.597891 -0.787896 0.397467 0.470361 0.314434 0.563768 -0.763739 -0.66106 0.393046 0.639151 -0.740842 -0.195004 -0.642749 -0.487295 0.64266 -0.591212 -0.313037 -0.556619 -0.769535 -0.841562 0.530632 0.101014 0.579446 0.601846 -0.549567 0.960205 0.224069 0.16673 0.154272 0.880334 -0.448567 0.617945 0.669603 0.412039 0.330322 -0.927562 0.174689 -0.667946 0.181816 -0.721659 0.671678 0.72963 -0.128412 -0.373356 0.0856764 0.923723 0.111932 0.472548 -0.874168 -0.60355 -0.774577 -0.189099 0.327403 -0.943854 0.0441325 -0.0452143 -0.45835 -0.887621 -0.212371 -0.369773 0.904526 -0.341612 0.119617 -0.932198 -0.96622 0.0714343 0.247622 