# vtk DataFile Version 4.0
Generated by libgran
ASCII
DATASET POLYDATA
POINTS 30 FLOAT
-3.4867 -2.8357 8.32435 -1.49238 -6.52323 9.32511 -4.13089 -4.94312 10.0771 -3.30621 -4.55812 6.42032 -2.62539 -0.980877 1.40849 -2.85398 -2.08136 6.73698 7.36753 -2.13946 6.42064 6.38724 -3.06483 6.43887 7.78319 0.270665 6.88516 7.32272 1.24241 6.60607 9.51865 2.99195 4.94276 8.11921 3.20663 4.9366 6.90194 3.68854 3.70477 -0.68607 0.171836 9.02918 -0.146913 -0.909773 8.15813 0.651735 -2.56388 6.74134 11.3535 -5.19219 8.79021 11.0745 -2.75759 8.96956 11.5345 -2.98055 9.82904 6.53039 -4.78482 7.20026 -0.779268 6.09708 -15.5041 -2.7321 7.43583 -16.2222 -2.09198 7.96168 -12.4314 -3.63543 2.99782 -11.2487 -6.26898 7.0849 -3.93668 -4.27986 -0.134061 -5.59313 -2.03024 -0.108489 -4.17419 -2.20282 -0.0230272 -2.3824 -7.81293 1.2544 -1.39464 -9.12193 1.42914 -2.08132 

POINT_DATA 30
FIELD FieldData 1
normals 3 30 double
0.373912 0.0502338 -0.926103 0.647082 -0.527347 0.550627 -0.374647 -0.0623343 0.92507 0.448673 -0.505667 0.736881 0.121352 0.428488 -0.895361 0.258804 0.704101 -0.661258 0.806766 0.138763 0.574347 -0.173525 -0.786602 0.592575 -0.784603 0.399444 0.474175 0.324135 0.5723 -0.753266 -0.659119 0.39054 0.642682 -0.740323 -0.175854 -0.648843 -0.476947 0.657763 -0.582983 -0.307068 -0.558319 -0.770707 -0.846225 0.52329 0.100349 0.575114 0.607474 -0.547923 0.963207 0.208965 0.169012 0.167191 0.880928 -0.442734 0.627219 0.657967 0.416745 0.316678 -0.933389 0.168818 -0.666366 0.170869 -0.725782 0.662024 0.738242 -0.129317 -0.381229 0.086969 0.920381 0.109905 0.468988 -0.87634 -0.594487 -0.781774 -0.188188 0.339076 -0.939691 0.0448211 -0.0379462 -0.458194 -0.888042 -0.210527 -0.372732 0.903742 -0.341716 0.113718 -0.932898 -0.967292 0.0610199 0.246216 