# vtk DataFile Version 4.0
Generated by libgran
ASCII
DATASET POLYDATA
POINTS 30 FLOAT
-3.51229 -2.8559 8.336 -1.54159 -6.55459 9.34295 -4.16876 -4.95521 10.0939 -3.34487 -4.58363 6.43557 -2.64583 -1.02207 1.41546 -2.87604 -2.10917 6.74646 7.34862 -2.15084 6.42272 6.38373 -3.09209 6.44824 7.72908 0.271742 6.85646 7.25391 1.23174 6.56181 9.41949 2.98305 4.86141 8.01719 3.17824 4.85661 6.78904 3.62216 3.62132 -0.691055 0.134384 9.03194 -0.159873 -0.952589 8.16266 0.626487 -2.61492 6.74866 11.3848 -5.11961 8.81442 11.0657 -2.68859 8.97533 11.5292 -2.89752 9.83645 6.55537 -4.80364 7.22266 -0.752586 6.09336 -15.4869 -2.69179 7.45682 -16.2064 -2.0156 7.95008 -12.3733 -3.63511 3.00069 -11.2464 -6.2153 7.08001 -3.89924 -4.30762 -0.160384 -5.58483 -2.05578 -0.165965 -4.17046 -2.2214 -0.0761991 -2.37823 -7.81932 1.25287 -1.38613 -9.1268 1.44332 -2.07155 

POINT_DATA 30
FIELD FieldData 1
normals 3 30 double
0.37334 0.0457739 -0.926565 0.644004 -0.53053 0.551177 -0.374217 -0.0578353 0.925536 0.446004 -0.507015 0.737574 0.123079 0.425622 -0.896492 0.262906 0.700955 -0.66298 0.80445 0.156417 0.573057 -0.160436 -0.784831 0.598582 -0.789009 0.396358 0.46943 0.313835 0.563643 -0.764078 -0.662315 0.392342 0.638285 -0.73998 -0.197155 -0.643086 -0.488177 0.641075 -0.592205 -0.311484 -0.557912 -0.769228 -0.842665 0.529061 0.100049 0.578586 0.6025 -0.549756 0.959647 0.226168 0.167109 0.152785 0.880189 -0.449359 0.616336 0.67126 0.411751 0.332076 -0.926719 0.175835 -0.667184 0.180639 -0.722658 0.671737 0.729971 -0.126141 -0.366705 0.0807346 0.926828 0.113579 0.474558 -0.872866 -0.602365 -0.774656 -0.192521 0.324929 -0.944678 0.0447836 -0.046281 -0.458845 -0.88731 -0.211896 -0.369079 0.90492 -0.340933 0.120852 -0.932287 -0.966546 0.0695941 0.24687 